
     Program PWSCF v.5.0.2 (svn rev. 9656) starts on  3Aug2015 at 18:15:38 

     This program is part of the open-source Quantum ESPRESSO suite
     for quantum simulation of materials; please cite
         "P. Giannozzi et al., J. Phys.:Condens. Matter 21 395502 (2009);
          URL http://www.quantum-espresso.org", 
     in publications or presentations arising from this work. More details at
     http://www.quantum-espresso.org/quote.php

     Parallel version (MPI & OpenMP), running on      48 processor cores
     Number of MPI processes:                48
     Threads/MPI process:                     1
     K-points division:     npool     =       4
     R & G space division:  proc/nbgrp/npool/nimage =      12
     wavefunctions fft division:  fft/group =       2

     Current dimensions of program PWSCF are:
     Max number of different atomic species (ntypx) = 10
     Max number of k-points (npk) =  40000
     Max angular momentum in pseudopotentials (lmaxx) =  3
     Reading input from Fe_100_2x2_CO_hollow_O_SB_scf.in
Warning: card  &IONS ignored
Warning: card  / ignored
Warning: card  &CELL ignored
Warning: card    PRESS=0.0 ignored
Warning: card    PRESS_CONV_THR=0.1 ignored
Warning: card  / ignored

     IMPORTANT: XC functional enforced from input :
     Exchange-correlation      = PBE ( 1 4 3 4 0)
     EXX-fraction              =        0.00
     Any further DFT definition will be discarded
     Please, verify this is what you really want

               file Fe.pbe-spn-kjpaw_psl.0.2.1.UPF: wavefunction(s)  3D renormalized
               file C.pbe-n-kjpaw_psl.0.1.upf: wavefunction(s)  2P renormalized
               file O.pbe-n-kjpaw_psl.0.1.UPF: wavefunction(s)  2P renormalized

     Subspace diagonalization in iterative solution of the eigenvalue problem:
     scalapack distributed-memory algorithm (size of sub-group:  2*  2 procs)


   Task Groups are in USE
   groups and procs/group :     2    6
 
     Parallelization info
     --------------------
     sticks:   dense  smooth     PW     G-vecs:    dense   smooth      PW
     Min         608     288     79               124119    40608    5765
     Max         610     289     80               124128    40659    5774
     Sum        7305    3457    949              1489451   487579   69203
 


     bravais-lattice index     =            0
     lattice parameter (alat)  =       1.8897  a.u.
     unit-cell volume          =    3898.2644 (a.u.)^3
     number of atoms/cell      =           23
     number of atomic types    =            3
     number of electrons       =       336.00
     number of Kohn-Sham states=          202
     kinetic-energy cutoff     =      95.0000  Ry
     charge density cutoff     =     800.0000  Ry
     convergence threshold     =      1.0E-08
     mixing beta               =       0.5000
     number of iterations used =            8  local-TF  mixing
     Exchange-correlation      = PBE ( 1 4 3 4 0)
     EXX-fraction              =        0.00

     celldm(1)=   1.889727  celldm(2)=   0.000000  celldm(3)=   0.000000
     celldm(4)=   0.000000  celldm(5)=   0.000000  celldm(6)=   0.000000

     crystal axes: (cart. coord. in units of alat)
               a(1) = (   5.665012   0.000000   0.000000 )  
               a(2) = (   0.000000   5.665012   0.000000 )  
               a(3) = (   0.000000   0.000000  18.000000 )  

     reciprocal axes: (cart. coord. in units 2 pi/alat)
               b(1) = (  0.176522 -0.000000  0.000000 )  
               b(2) = (  0.000000  0.176522  0.000000 )  
               b(3) = (  0.000000  0.000000  0.055556 )  


     PseudoPot. # 1 for Fe read from file:
     /work/e05/e05/ablar/QE_PSEUDO/Fe.pbe-spn-kjpaw_psl.0.2.1.UPF
     MD5 check sum: a0a08122d52b112de96d1da1d7dd020f
     Pseudo is Projector augmented-wave + core cor, Zval = 16.0
     Generated using "atomic" code by A. Dal Corso  v.5.0.2 svn rev. 9415
     Shape of augmentation charge: PSQ
     Using radial grid of 1191 points,  6 beta functions with: 
                l(1) =   0
                l(2) =   0
                l(3) =   1
                l(4) =   1
                l(5) =   2
                l(6) =   2
     Q(r) pseudized with 0 coefficients 


     PseudoPot. # 2 for  C read from file:
     /work/e05/e05/ablar/QE_PSEUDO/C.pbe-n-kjpaw_psl.0.1.upf
     MD5 check sum: 430fe95172b1e11ef3f8ed03bac87931
     Pseudo is Projector augmented-wave + core cor, Zval =  4.0
     Generated using "atomic" code by A. Dal Corso  v.5.0.99 svn rev. 10869
     Shape of augmentation charge: BESSEL
     Using radial grid of 1073 points,  4 beta functions with: 
                l(1) =   0
                l(2) =   0
                l(3) =   1
                l(4) =   1
     Q(r) pseudized with 0 coefficients 


     PseudoPot. # 3 for  O read from file:
     /work/e05/e05/ablar/QE_PSEUDO/O.pbe-n-kjpaw_psl.0.1.UPF
     MD5 check sum: 1d826bf4880e2aee2c3af49d0719521d
     Pseudo is Projector augmented-wave + core cor, Zval =  6.0
     Generated using "atomic" code by A. Dal Corso  v.5.0.2 svn rev. 9415
     Shape of augmentation charge: BESSEL
     Using radial grid of 1095 points,  4 beta functions with: 
                l(1) =   0
                l(2) =   0
                l(3) =   1
                l(4) =   1
     Q(r) pseudized with 0 coefficients 


     atomic species   valence    mass     pseudopotential
        Fe            16.00    55.85000     Fe( 1.00)
        C              4.00    12.00000      C( 1.00)
        O              6.00    16.00000      O( 1.00)

     Starting magnetic structure 
     atomic species   magnetization
        Fe           0.600
        C            0.000
        O            0.000


     Simplified LDA+U calculation (l_max = 2) with parameters (eV):
     atomic species    L          U    alpha       J0     beta
        Fe             2     0.0000   0.0000   0.0000   0.0000



     No symmetry found


                                    s                        frac. trans.

      isym =  1     identity                                     

 cryst.   s( 1) = (     1          0          0      )
                  (     0          1          0      )
                  (     0          0          1      )

 cart.    s( 1) = (  1.0000000  0.0000000  0.0000000 )
                  (  0.0000000  1.0000000  0.0000000 )
                  (  0.0000000  0.0000000  1.0000000 )


     point group C_1 (1)    
     there are  1 classes
     the character table:

       E    
A      1.00

     the symmetry operations in each class:
     E        1

   Cartesian axes

     site n.     atom                  positions (alat units)
         1           Fe  tau(   1) = (   0.0000000   0.0000000  -2.8324989  )
         2           Fe  tau(   2) = (   0.0000000   2.8325089  -2.8324989  )
         3           Fe  tau(   3) = (   2.8325089   0.0000000  -2.8324989  )
         4           Fe  tau(   4) = (   2.8324989   2.8325089  -2.8324989  )
         5           Fe  tau(   5) = (   1.4162494   1.4162494  -1.4162594  )
         6           Fe  tau(   6) = (   1.4162494  -1.4162494  -1.4162594  )
         7           Fe  tau(   7) = (  -1.4162494   1.4162494  -1.4162594  )
         8           Fe  tau(   8) = (  -1.4162494  -1.4162494  -1.4162594  )
         9           Fe  tau(   9) = (   0.0000000   0.0000000   0.0000000  )
        10           Fe  tau(  10) = (   0.0000000   2.8324989   0.0000000  )
        11           Fe  tau(  11) = (   2.8324989   0.0000000   0.0000000  )
        12           Fe  tau(  12) = (   2.8324989   2.8324989   0.0000000  )
        13           Fe  tau(  13) = (   1.4164700   1.4163377   1.4125327  )
        14           Fe  tau(  14) = (   1.4247313  -1.4161856   1.4411260  )
        15           Fe  tau(  15) = (  -1.4132529   1.4163337   1.4305513  )
        16           Fe  tau(  16) = (  -1.4159108  -1.4161479   1.3607085  )
        17           Fe  tau(  17) = (   0.0144124   0.0022692   2.8917071  )
        18           Fe  tau(  18) = (   0.0143122   2.8304963   2.8915719  )
        19           Fe  tau(  19) = (   2.8484828  -0.0249946   2.9192513  )
        20           Fe  tau(  20) = (   2.8487697   2.8580040   2.9192916  )
        21           C   tau(  21) = (   1.2427884   1.4162996   3.4375547  )
        22           O   tau(  22) = (   2.2232109   1.4169911   4.3292646  )
        23           O   tau(  23) = (  -1.3103742   4.2489687   3.4182272  )

   Crystallographic axes

     site n.     atom                  positions (cryst. coord.)
         1           Fe  tau(   1) = (  0.0000000  0.0000000 -0.1573610  )
         2           Fe  tau(   2) = ( -0.0000000  0.5000005 -0.1573610  )
         3           Fe  tau(   3) = (  0.5000005  0.0000000 -0.1573610  )
         4           Fe  tau(   4) = (  0.4999987  0.5000005 -0.1573610  )
         5           Fe  tau(   5) = (  0.2499994  0.2499994 -0.0786811  )
         6           Fe  tau(   6) = (  0.2499994 -0.2499994 -0.0786811  )
         7           Fe  tau(   7) = ( -0.2499994  0.2499994 -0.0786811  )
         8           Fe  tau(   8) = ( -0.2499994 -0.2499994 -0.0786811  )
         9           Fe  tau(   9) = (  0.0000000  0.0000000  0.0000000  )
        10           Fe  tau(  10) = ( -0.0000000  0.4999987  0.0000000  )
        11           Fe  tau(  11) = (  0.4999987  0.0000000  0.0000000  )
        12           Fe  tau(  12) = (  0.4999987  0.4999987  0.0000000  )
        13           Fe  tau(  13) = (  0.2500383  0.2500150  0.0784740  )
        14           Fe  tau(  14) = (  0.2514966 -0.2499881  0.0800626  )
        15           Fe  tau(  15) = ( -0.2494704  0.2500142  0.0794751  )
        16           Fe  tau(  16) = ( -0.2499396 -0.2499814  0.0755949  )
        17           Fe  tau(  17) = (  0.0025441  0.0004006  0.1606504  )
        18           Fe  tau(  18) = (  0.0025264  0.4996452  0.1606429  )
        19           Fe  tau(  19) = (  0.5028203 -0.0044121  0.1621806  )
        20           Fe  tau(  20) = (  0.5028709  0.5045010  0.1621829  )
        21           C   tau(  21) = (  0.2193797  0.2500082  0.1909753  )
        22           O   tau(  22) = (  0.3924459  0.2501303  0.2405147  )
        23           O   tau(  23) = ( -0.2313100  0.7500370  0.1899015  )

     number of k points=    20  Marzari-Vanderbilt smearing, width (Ry)=  0.0400
                       cart. coord. in units 2pi/alat
        k(    1) = (   0.0000000   0.0000000   0.0000000), wk =   0.0625000
        k(    2) = (   0.0000000   0.0441305   0.0000000), wk =   0.1250000
        k(    3) = (   0.0000000  -0.0882611   0.0000000), wk =   0.0625000
        k(    4) = (   0.0441305   0.0441305   0.0000000), wk =   0.1250000
        k(    5) = (   0.0441305  -0.0882611   0.0000000), wk =   0.1250000
        k(    6) = (  -0.0882611  -0.0882611   0.0000000), wk =   0.0625000
        k(    7) = (   0.0441305  -0.0000000   0.0000000), wk =   0.1250000
        k(    8) = (  -0.0882611   0.0000000   0.0000000), wk =   0.0625000
        k(    9) = (  -0.0441305   0.0441305   0.0000000), wk =   0.1250000
        k(   10) = (  -0.0882611   0.0441305   0.0000000), wk =   0.1250000
        k(   11) = (   0.0000000   0.0000000   0.0000000), wk =   0.0625000
        k(   12) = (   0.0000000   0.0441305   0.0000000), wk =   0.1250000
        k(   13) = (   0.0000000  -0.0882611   0.0000000), wk =   0.0625000
        k(   14) = (   0.0441305   0.0441305   0.0000000), wk =   0.1250000
        k(   15) = (   0.0441305  -0.0882611   0.0000000), wk =   0.1250000
        k(   16) = (  -0.0882611  -0.0882611   0.0000000), wk =   0.0625000
        k(   17) = (   0.0441305  -0.0000000   0.0000000), wk =   0.1250000
        k(   18) = (  -0.0882611   0.0000000   0.0000000), wk =   0.0625000
        k(   19) = (  -0.0441305   0.0441305   0.0000000), wk =   0.1250000
        k(   20) = (  -0.0882611   0.0441305   0.0000000), wk =   0.1250000

                       cryst. coord.
        k(    1) = (   0.0000000   0.0000000   0.0000000), wk =   0.0625000
        k(    2) = (   0.0000000   0.2500000   0.0000000), wk =   0.1250000
        k(    3) = (   0.0000000  -0.5000000   0.0000000), wk =   0.0625000
        k(    4) = (   0.2500000   0.2500000   0.0000000), wk =   0.1250000
        k(    5) = (   0.2500000  -0.5000000   0.0000000), wk =   0.1250000
        k(    6) = (  -0.5000000  -0.5000000   0.0000000), wk =   0.0625000
        k(    7) = (   0.2500000   0.0000000   0.0000000), wk =   0.1250000
        k(    8) = (  -0.5000000  -0.0000000   0.0000000), wk =   0.0625000
        k(    9) = (  -0.2500000   0.2500000   0.0000000), wk =   0.1250000
        k(   10) = (  -0.5000000   0.2500000   0.0000000), wk =   0.1250000
        k(   11) = (   0.0000000   0.0000000   0.0000000), wk =   0.0625000
        k(   12) = (   0.0000000   0.2500000   0.0000000), wk =   0.1250000
        k(   13) = (   0.0000000  -0.5000000   0.0000000), wk =   0.0625000
        k(   14) = (   0.2500000   0.2500000   0.0000000), wk =   0.1250000
        k(   15) = (   0.2500000  -0.5000000   0.0000000), wk =   0.1250000
        k(   16) = (  -0.5000000  -0.5000000   0.0000000), wk =   0.0625000
        k(   17) = (   0.2500000   0.0000000   0.0000000), wk =   0.1250000
        k(   18) = (  -0.5000000  -0.0000000   0.0000000), wk =   0.0625000
        k(   19) = (  -0.2500000   0.2500000   0.0000000), wk =   0.1250000
        k(   20) = (  -0.5000000   0.2500000   0.0000000), wk =   0.1250000

     Dense  grid:  1489451 G-vectors     FFT dimensions: ( 100, 100, 320)

     Smooth grid:   487579 G-vectors     FFT dimensions: (  72,  72, 216)

     Largest allocated arrays     est. size (Mb)     dimensions
        Kohn-Sham Wavefunctions        15.74 Mb     (   5107,  202)
        Atomic wavefunctions           21.20 Mb     (   5107,  272)
        NL pseudopotentials            29.92 Mb     (   5107,  384)
        Each V/rho on FFT grid          8.24 Mb     ( 270000,   2)
        Each G-vector array             0.95 Mb     ( 124120)
        G-vector shells                 0.34 Mb     (  44791)
     Largest temporary arrays     est. size (Mb)     dimensions
        Auxiliary wavefunctions        62.96 Mb     (   5107,  808)
        Each subspace H/S matrix        2.49 Mb     ( 404, 404)
        Each <psi_i|beta_j> matrix      1.18 Mb     (    384,  202)
        Arrays for rho mixing          32.96 Mb     ( 270000,   8)

     Check: negative/imaginary core charge=   -0.000011    0.000000

     Initial potential from superposition of free atoms

     starting charge  335.99119, renormalised to  336.00000

     negative rho (up, down):  0.484E-04 0.199E-04
 --- in v_hubbard ---
Hubbard energy    0.0000
 -------
     Number of +U iterations with fixed ns =  0
     Starting occupations:
 --- enter write_ns ---
 LDA+U parameters:
U( 1)     =  0.00000000
alpha( 1) =  0.00000000
atom    1   Tr[ns(na)] (up, down, total) =   5.00000  1.00000  6.00000
   spin  1
    eigenvalues: 
  1.000  1.000  1.000  1.000  1.000
    eigenvectors:
  1.000  0.000  0.000  0.000  0.000
  0.000  1.000  0.000  0.000  0.000
  0.000  0.000  1.000  0.000  0.000
  0.000  0.000  0.000  1.000  0.000
  0.000  0.000  0.000  0.000  1.000
    occupations:
  1.000  0.000  0.000  0.000  0.000
  0.000  1.000  0.000  0.000  0.000
  0.000  0.000  1.000  0.000  0.000
  0.000  0.000  0.000  1.000  0.000
  0.000  0.000  0.000  0.000  1.000
   spin  2
    eigenvalues: 
  0.200  0.200  0.200  0.200  0.200
    eigenvectors:
  1.000  0.000  0.000  0.000  0.000
  0.000  1.000  0.000  0.000  0.000
  0.000  0.000  1.000  0.000  0.000
  0.000  0.000  0.000  1.000  0.000
  0.000  0.000  0.000  0.000  1.000
    occupations:
  0.200  0.000  0.000  0.000  0.000
  0.000  0.200  0.000  0.000  0.000
  0.000  0.000  0.200  0.000  0.000
  0.000  0.000  0.000  0.200  0.000
  0.000  0.000  0.000  0.000  0.200
atomic mag. moment =     4.000000
atom    2   Tr[ns(na)] (up, down, total) =   5.00000  1.00000  6.00000
   spin  1
    eigenvalues: 
  1.000  1.000  1.000  1.000  1.000
    eigenvectors:
  1.000  0.000  0.000  0.000  0.000
  0.000  1.000  0.000  0.000  0.000
  0.000  0.000  1.000  0.000  0.000
  0.000  0.000  0.000  1.000  0.000
  0.000  0.000  0.000  0.000  1.000
    occupations:
  1.000  0.000  0.000  0.000  0.000
  0.000  1.000  0.000  0.000  0.000
  0.000  0.000  1.000  0.000  0.000
  0.000  0.000  0.000  1.000  0.000
  0.000  0.000  0.000  0.000  1.000
   spin  2
    eigenvalues: 
  0.200  0.200  0.200  0.200  0.200
    eigenvectors:
  1.000  0.000  0.000  0.000  0.000
  0.000  1.000  0.000  0.000  0.000
  0.000  0.000  1.000  0.000  0.000
  0.000  0.000  0.000  1.000  0.000
  0.000  0.000  0.000  0.000  1.000
    occupations:
  0.200  0.000  0.000  0.000  0.000
  0.000  0.200  0.000  0.000  0.000
  0.000  0.000  0.200  0.000  0.000
  0.000  0.000  0.000  0.200  0.000
  0.000  0.000  0.000  0.000  0.200
atomic mag. moment =     4.000000
atom    3   Tr[ns(na)] (up, down, total) =   5.00000  1.00000  6.00000
   spin  1
    eigenvalues: 
  1.000  1.000  1.000  1.000  1.000
    eigenvectors:
  1.000  0.000  0.000  0.000  0.000
  0.000  1.000  0.000  0.000  0.000
  0.000  0.000  1.000  0.000  0.000
  0.000  0.000  0.000  1.000  0.000
  0.000  0.000  0.000  0.000  1.000
    occupations:
  1.000  0.000  0.000  0.000  0.000
  0.000  1.000  0.000  0.000  0.000
  0.000  0.000  1.000  0.000  0.000
  0.000  0.000  0.000  1.000  0.000
  0.000  0.000  0.000  0.000  1.000
   spin  2
    eigenvalues: 
  0.200  0.200  0.200  0.200  0.200
    eigenvectors:
  1.000  0.000  0.000  0.000  0.000
  0.000  1.000  0.000  0.000  0.000
  0.000  0.000  1.000  0.000  0.000
  0.000  0.000  0.000  1.000  0.000
  0.000  0.000  0.000  0.000  1.000
    occupations:
  0.200  0.000  0.000  0.000  0.000
  0.000  0.200  0.000  0.000  0.000
  0.000  0.000  0.200  0.000  0.000
  0.000  0.000  0.000  0.200  0.000
  0.000  0.000  0.000  0.000  0.200
atomic mag. moment =     4.000000
atom    4   Tr[ns(na)] (up, down, total) =   5.00000  1.00000  6.00000
   spin  1
    eigenvalues: 
  1.000  1.000  1.000  1.000  1.000
    eigenvectors:
  1.000  0.000  0.000  0.000  0.000
  0.000  1.000  0.000  0.000  0.000
  0.000  0.000  1.000  0.000  0.000
  0.000  0.000  0.000  1.000  0.000
  0.000  0.000  0.000  0.000  1.000
    occupations:
  1.000  0.000  0.000  0.000  0.000
  0.000  1.000  0.000  0.000  0.000
  0.000  0.000  1.000  0.000  0.000
  0.000  0.000  0.000  1.000  0.000
  0.000  0.000  0.000  0.000  1.000
   spin  2
    eigenvalues: 
  0.200  0.200  0.200  0.200  0.200
    eigenvectors:
  1.000  0.000  0.000  0.000  0.000
  0.000  1.000  0.000  0.000  0.000
  0.000  0.000  1.000  0.000  0.000
  0.000  0.000  0.000  1.000  0.000
  0.000  0.000  0.000  0.000  1.000
    occupations:
  0.200  0.000  0.000  0.000  0.000
  0.000  0.200  0.000  0.000  0.000
  0.000  0.000  0.200  0.000  0.000
  0.000  0.000  0.000  0.200  0.000
  0.000  0.000  0.000  0.000  0.200
atomic mag. moment =     4.000000
atom    5   Tr[ns(na)] (up, down, total) =   5.00000  1.00000  6.00000
   spin  1
    eigenvalues: 
  1.000  1.000  1.000  1.000  1.000
    eigenvectors:
  1.000  0.000  0.000  0.000  0.000
  0.000  1.000  0.000  0.000  0.000
  0.000  0.000  1.000  0.000  0.000
  0.000  0.000  0.000  1.000  0.000
  0.000  0.000  0.000  0.000  1.000
    occupations:
  1.000  0.000  0.000  0.000  0.000
  0.000  1.000  0.000  0.000  0.000
  0.000  0.000  1.000  0.000  0.000
  0.000  0.000  0.000  1.000  0.000
  0.000  0.000  0.000  0.000  1.000
   spin  2
    eigenvalues: 
  0.200  0.200  0.200  0.200  0.200
    eigenvectors:
  1.000  0.000  0.000  0.000  0.000
  0.000  1.000  0.000  0.000  0.000
  0.000  0.000  1.000  0.000  0.000
  0.000  0.000  0.000  1.000  0.000
  0.000  0.000  0.000  0.000  1.000
    occupations:
  0.200  0.000  0.000  0.000  0.000
  0.000  0.200  0.000  0.000  0.000
  0.000  0.000  0.200  0.000  0.000
  0.000  0.000  0.000  0.200  0.000
  0.000  0.000  0.000  0.000  0.200
atomic mag. moment =     4.000000
atom    6   Tr[ns(na)] (up, down, total) =   5.00000  1.00000  6.00000
   spin  1
    eigenvalues: 
  1.000  1.000  1.000  1.000  1.000
    eigenvectors:
  1.000  0.000  0.000  0.000  0.000
  0.000  1.000  0.000  0.000  0.000
  0.000  0.000  1.000  0.000  0.000
  0.000  0.000  0.000  1.000  0.000
  0.000  0.000  0.000  0.000  1.000
    occupations:
  1.000  0.000  0.000  0.000  0.000
  0.000  1.000  0.000  0.000  0.000
  0.000  0.000  1.000  0.000  0.000
  0.000  0.000  0.000  1.000  0.000
  0.000  0.000  0.000  0.000  1.000
   spin  2
    eigenvalues: 
  0.200  0.200  0.200  0.200  0.200
    eigenvectors:
  1.000  0.000  0.000  0.000  0.000
  0.000  1.000  0.000  0.000  0.000
  0.000  0.000  1.000  0.000  0.000
  0.000  0.000  0.000  1.000  0.000
  0.000  0.000  0.000  0.000  1.000
    occupations:
  0.200  0.000  0.000  0.000  0.000
  0.000  0.200  0.000  0.000  0.000
  0.000  0.000  0.200  0.000  0.000
  0.000  0.000  0.000  0.200  0.000
  0.000  0.000  0.000  0.000  0.200
atomic mag. moment =     4.000000
atom    7   Tr[ns(na)] (up, down, total) =   5.00000  1.00000  6.00000
   spin  1
    eigenvalues: 
  1.000  1.000  1.000  1.000  1.000
    eigenvectors:
  1.000  0.000  0.000  0.000  0.000
  0.000  1.000  0.000  0.000  0.000
  0.000  0.000  1.000  0.000  0.000
  0.000  0.000  0.000  1.000  0.000
  0.000  0.000  0.000  0.000  1.000
    occupations:
  1.000  0.000  0.000  0.000  0.000
  0.000  1.000  0.000  0.000  0.000
  0.000  0.000  1.000  0.000  0.000
  0.000  0.000  0.000  1.000  0.000
  0.000  0.000  0.000  0.000  1.000
   spin  2
    eigenvalues: 
  0.200  0.200  0.200  0.200  0.200
    eigenvectors:
  1.000  0.000  0.000  0.000  0.000
  0.000  1.000  0.000  0.000  0.000
  0.000  0.000  1.000  0.000  0.000
  0.000  0.000  0.000  1.000  0.000
  0.000  0.000  0.000  0.000  1.000
    occupations:
  0.200  0.000  0.000  0.000  0.000
  0.000  0.200  0.000  0.000  0.000
  0.000  0.000  0.200  0.000  0.000
  0.000  0.000  0.000  0.200  0.000
  0.000  0.000  0.000  0.000  0.200
atomic mag. moment =     4.000000
atom    8   Tr[ns(na)] (up, down, total) =   5.00000  1.00000  6.00000
   spin  1
    eigenvalues: 
  1.000  1.000  1.000  1.000  1.000
    eigenvectors:
  1.000  0.000  0.000  0.000  0.000
  0.000  1.000  0.000  0.000  0.000
  0.000  0.000  1.000  0.000  0.000
  0.000  0.000  0.000  1.000  0.000
  0.000  0.000  0.000  0.000  1.000
    occupations:
  1.000  0.000  0.000  0.000  0.000
  0.000  1.000  0.000  0.000  0.000
  0.000  0.000  1.000  0.000  0.000
  0.000  0.000  0.000  1.000  0.000
  0.000  0.000  0.000  0.000  1.000
   spin  2
    eigenvalues: 
  0.200  0.200  0.200  0.200  0.200
    eigenvectors:
  1.000  0.000  0.000  0.000  0.000
  0.000  1.000  0.000  0.000  0.000
  0.000  0.000  1.000  0.000  0.000
  0.000  0.000  0.000  1.000  0.000
  0.000  0.000  0.000  0.000  1.000
    occupations:
  0.200  0.000  0.000  0.000  0.000
  0.000  0.200  0.000  0.000  0.000
  0.000  0.000  0.200  0.000  0.000
  0.000  0.000  0.000  0.200  0.000
  0.000  0.000  0.000  0.000  0.200
atomic mag. moment =     4.000000
atom    9   Tr[ns(na)] (up, down, total) =   5.00000  1.00000  6.00000
   spin  1
    eigenvalues: 
  1.000  1.000  1.000  1.000  1.000
    eigenvectors:
  1.000  0.000  0.000  0.000  0.000
  0.000  1.000  0.000  0.000  0.000
  0.000  0.000  1.000  0.000  0.000
  0.000  0.000  0.000  1.000  0.000
  0.000  0.000  0.000  0.000  1.000
    occupations:
  1.000  0.000  0.000  0.000  0.000
  0.000  1.000  0.000  0.000  0.000
  0.000  0.000  1.000  0.000  0.000
  0.000  0.000  0.000  1.000  0.000
  0.000  0.000  0.000  0.000  1.000
   spin  2
    eigenvalues: 
  0.200  0.200  0.200  0.200  0.200
    eigenvectors:
  1.000  0.000  0.000  0.000  0.000
  0.000  1.000  0.000  0.000  0.000
  0.000  0.000  1.000  0.000  0.000
  0.000  0.000  0.000  1.000  0.000
  0.000  0.000  0.000  0.000  1.000
    occupations:
  0.200  0.000  0.000  0.000  0.000
  0.000  0.200  0.000  0.000  0.000
  0.000  0.000  0.200  0.000  0.000
  0.000  0.000  0.000  0.200  0.000
  0.000  0.000  0.000  0.000  0.200
atomic mag. moment =     4.000000
atom   10   Tr[ns(na)] (up, down, total) =   5.00000  1.00000  6.00000
   spin  1
    eigenvalues: 
  1.000  1.000  1.000  1.000  1.000
    eigenvectors:
  1.000  0.000  0.000  0.000  0.000
  0.000  1.000  0.000  0.000  0.000
  0.000  0.000  1.000  0.000  0.000
  0.000  0.000  0.000  1.000  0.000
  0.000  0.000  0.000  0.000  1.000
    occupations:
  1.000  0.000  0.000  0.000  0.000
  0.000  1.000  0.000  0.000  0.000
  0.000  0.000  1.000  0.000  0.000
  0.000  0.000  0.000  1.000  0.000
  0.000  0.000  0.000  0.000  1.000
   spin  2
    eigenvalues: 
  0.200  0.200  0.200  0.200  0.200
    eigenvectors:
  1.000  0.000  0.000  0.000  0.000
  0.000  1.000  0.000  0.000  0.000
  0.000  0.000  1.000  0.000  0.000
  0.000  0.000  0.000  1.000  0.000
  0.000  0.000  0.000  0.000  1.000
    occupations:
  0.200  0.000  0.000  0.000  0.000
  0.000  0.200  0.000  0.000  0.000
  0.000  0.000  0.200  0.000  0.000
  0.000  0.000  0.000  0.200  0.000
  0.000  0.000  0.000  0.000  0.200
atomic mag. moment =     4.000000
atom   11   Tr[ns(na)] (up, down, total) =   5.00000  1.00000  6.00000
   spin  1
    eigenvalues: 
  1.000  1.000  1.000  1.000  1.000
    eigenvectors:
  1.000  0.000  0.000  0.000  0.000
  0.000  1.000  0.000  0.000  0.000
  0.000  0.000  1.000  0.000  0.000
  0.000  0.000  0.000  1.000  0.000
  0.000  0.000  0.000  0.000  1.000
    occupations:
  1.000  0.000  0.000  0.000  0.000
  0.000  1.000  0.000  0.000  0.000
  0.000  0.000  1.000  0.000  0.000
  0.000  0.000  0.000  1.000  0.000
  0.000  0.000  0.000  0.000  1.000
   spin  2
    eigenvalues: 
  0.200  0.200  0.200  0.200  0.200
    eigenvectors:
  1.000  0.000  0.000  0.000  0.000
  0.000  1.000  0.000  0.000  0.000
  0.000  0.000  1.000  0.000  0.000
  0.000  0.000  0.000  1.000  0.000
  0.000  0.000  0.000  0.000  1.000
    occupations:
  0.200  0.000  0.000  0.000  0.000
  0.000  0.200  0.000  0.000  0.000
  0.000  0.000  0.200  0.000  0.000
  0.000  0.000  0.000  0.200  0.000
  0.000  0.000  0.000  0.000  0.200
atomic mag. moment =     4.000000
atom   12   Tr[ns(na)] (up, down, total) =   5.00000  1.00000  6.00000
   spin  1
    eigenvalues: 
  1.000  1.000  1.000  1.000  1.000
    eigenvectors:
  1.000  0.000  0.000  0.000  0.000
  0.000  1.000  0.000  0.000  0.000
  0.000  0.000  1.000  0.000  0.000
  0.000  0.000  0.000  1.000  0.000
  0.000  0.000  0.000  0.000  1.000
    occupations:
  1.000  0.000  0.000  0.000  0.000
  0.000  1.000  0.000  0.000  0.000
  0.000  0.000  1.000  0.000  0.000
  0.000  0.000  0.000  1.000  0.000
  0.000  0.000  0.000  0.000  1.000
   spin  2
    eigenvalues: 
  0.200  0.200  0.200  0.200  0.200
    eigenvectors:
  1.000  0.000  0.000  0.000  0.000
  0.000  1.000  0.000  0.000  0.000
  0.000  0.000  1.000  0.000  0.000
  0.000  0.000  0.000  1.000  0.000
  0.000  0.000  0.000  0.000  1.000
    occupations:
  0.200  0.000  0.000  0.000  0.000
  0.000  0.200  0.000  0.000  0.000
  0.000  0.000  0.200  0.000  0.000
  0.000  0.000  0.000  0.200  0.000
  0.000  0.000  0.000  0.000  0.200
atomic mag. moment =     4.000000
atom   13   Tr[ns(na)] (up, down, total) =   5.00000  1.00000  6.00000
   spin  1
    eigenvalues: 
  1.000  1.000  1.000  1.000  1.000
    eigenvectors:
  1.000  0.000  0.000  0.000  0.000
  0.000  1.000  0.000  0.000  0.000
  0.000  0.000  1.000  0.000  0.000
  0.000  0.000  0.000  1.000  0.000
  0.000  0.000  0.000  0.000  1.000
    occupations:
  1.000  0.000  0.000  0.000  0.000
  0.000  1.000  0.000  0.000  0.000
  0.000  0.000  1.000  0.000  0.000
  0.000  0.000  0.000  1.000  0.000
  0.000  0.000  0.000  0.000  1.000
   spin  2
    eigenvalues: 
  0.200  0.200  0.200  0.200  0.200
    eigenvectors:
  1.000  0.000  0.000  0.000  0.000
  0.000  1.000  0.000  0.000  0.000
  0.000  0.000  1.000  0.000  0.000
  0.000  0.000  0.000  1.000  0.000
  0.000  0.000  0.000  0.000  1.000
    occupations:
  0.200  0.000  0.000  0.000  0.000
  0.000  0.200  0.000  0.000  0.000
  0.000  0.000  0.200  0.000  0.000
  0.000  0.000  0.000  0.200  0.000
  0.000  0.000  0.000  0.000  0.200
atomic mag. moment =     4.000000
atom   14   Tr[ns(na)] (up, down, total) =   5.00000  1.00000  6.00000
   spin  1
    eigenvalues: 
  1.000  1.000  1.000  1.000  1.000
    eigenvectors:
  1.000  0.000  0.000  0.000  0.000
  0.000  1.000  0.000  0.000  0.000
  0.000  0.000  1.000  0.000  0.000
  0.000  0.000  0.000  1.000  0.000
  0.000  0.000  0.000  0.000  1.000
    occupations:
  1.000  0.000  0.000  0.000  0.000
  0.000  1.000  0.000  0.000  0.000
  0.000  0.000  1.000  0.000  0.000
  0.000  0.000  0.000  1.000  0.000
  0.000  0.000  0.000  0.000  1.000
   spin  2
    eigenvalues: 
  0.200  0.200  0.200  0.200  0.200
    eigenvectors:
  1.000  0.000  0.000  0.000  0.000
  0.000  1.000  0.000  0.000  0.000
  0.000  0.000  1.000  0.000  0.000
  0.000  0.000  0.000  1.000  0.000
  0.000  0.000  0.000  0.000  1.000
    occupations:
  0.200  0.000  0.000  0.000  0.000
  0.000  0.200  0.000  0.000  0.000
  0.000  0.000  0.200  0.000  0.000
  0.000  0.000  0.000  0.200  0.000
  0.000  0.000  0.000  0.000  0.200
atomic mag. moment =     4.000000
atom   15   Tr[ns(na)] (up, down, total) =   5.00000  1.00000  6.00000
   spin  1
    eigenvalues: 
  1.000  1.000  1.000  1.000  1.000
    eigenvectors:
  1.000  0.000  0.000  0.000  0.000
  0.000  1.000  0.000  0.000  0.000
  0.000  0.000  1.000  0.000  0.000
  0.000  0.000  0.000  1.000  0.000
  0.000  0.000  0.000  0.000  1.000
    occupations:
  1.000  0.000  0.000  0.000  0.000
  0.000  1.000  0.000  0.000  0.000
  0.000  0.000  1.000  0.000  0.000
  0.000  0.000  0.000  1.000  0.000
  0.000  0.000  0.000  0.000  1.000
   spin  2
    eigenvalues: 
  0.200  0.200  0.200  0.200  0.200
    eigenvectors:
  1.000  0.000  0.000  0.000  0.000
  0.000  1.000  0.000  0.000  0.000
  0.000  0.000  1.000  0.000  0.000
  0.000  0.000  0.000  1.000  0.000
  0.000  0.000  0.000  0.000  1.000
    occupations:
  0.200  0.000  0.000  0.000  0.000
  0.000  0.200  0.000  0.000  0.000
  0.000  0.000  0.200  0.000  0.000
  0.000  0.000  0.000  0.200  0.000
  0.000  0.000  0.000  0.000  0.200
atomic mag. moment =     4.000000
atom   16   Tr[ns(na)] (up, down, total) =   5.00000  1.00000  6.00000
   spin  1
    eigenvalues: 
  1.000  1.000  1.000  1.000  1.000
    eigenvectors:
  1.000  0.000  0.000  0.000  0.000
  0.000  1.000  0.000  0.000  0.000
  0.000  0.000  1.000  0.000  0.000
  0.000  0.000  0.000  1.000  0.000
  0.000  0.000  0.000  0.000  1.000
    occupations:
  1.000  0.000  0.000  0.000  0.000
  0.000  1.000  0.000  0.000  0.000
  0.000  0.000  1.000  0.000  0.000
  0.000  0.000  0.000  1.000  0.000
  0.000  0.000  0.000  0.000  1.000
   spin  2
    eigenvalues: 
  0.200  0.200  0.200  0.200  0.200
    eigenvectors:
  1.000  0.000  0.000  0.000  0.000
  0.000  1.000  0.000  0.000  0.000
  0.000  0.000  1.000  0.000  0.000
  0.000  0.000  0.000  1.000  0.000
  0.000  0.000  0.000  0.000  1.000
    occupations:
  0.200  0.000  0.000  0.000  0.000
  0.000  0.200  0.000  0.000  0.000
  0.000  0.000  0.200  0.000  0.000
  0.000  0.000  0.000  0.200  0.000
  0.000  0.000  0.000  0.000  0.200
atomic mag. moment =     4.000000
atom   17   Tr[ns(na)] (up, down, total) =   5.00000  1.00000  6.00000
   spin  1
    eigenvalues: 
  1.000  1.000  1.000  1.000  1.000
    eigenvectors:
  1.000  0.000  0.000  0.000  0.000
  0.000  1.000  0.000  0.000  0.000
  0.000  0.000  1.000  0.000  0.000
  0.000  0.000  0.000  1.000  0.000
  0.000  0.000  0.000  0.000  1.000
    occupations:
  1.000  0.000  0.000  0.000  0.000
  0.000  1.000  0.000  0.000  0.000
  0.000  0.000  1.000  0.000  0.000
  0.000  0.000  0.000  1.000  0.000
  0.000  0.000  0.000  0.000  1.000
   spin  2
    eigenvalues: 
  0.200  0.200  0.200  0.200  0.200
    eigenvectors:
  1.000  0.000  0.000  0.000  0.000
  0.000  1.000  0.000  0.000  0.000
  0.000  0.000  1.000  0.000  0.000
  0.000  0.000  0.000  1.000  0.000
  0.000  0.000  0.000  0.000  1.000
    occupations:
  0.200  0.000  0.000  0.000  0.000
  0.000  0.200  0.000  0.000  0.000
  0.000  0.000  0.200  0.000  0.000
  0.000  0.000  0.000  0.200  0.000
  0.000  0.000  0.000  0.000  0.200
atomic mag. moment =     4.000000
atom   18   Tr[ns(na)] (up, down, total) =   5.00000  1.00000  6.00000
   spin  1
    eigenvalues: 
  1.000  1.000  1.000  1.000  1.000
    eigenvectors:
  1.000  0.000  0.000  0.000  0.000
  0.000  1.000  0.000  0.000  0.000
  0.000  0.000  1.000  0.000  0.000
  0.000  0.000  0.000  1.000  0.000
  0.000  0.000  0.000  0.000  1.000
    occupations:
  1.000  0.000  0.000  0.000  0.000
  0.000  1.000  0.000  0.000  0.000
  0.000  0.000  1.000  0.000  0.000
  0.000  0.000  0.000  1.000  0.000
  0.000  0.000  0.000  0.000  1.000
   spin  2
    eigenvalues: 
  0.200  0.200  0.200  0.200  0.200
    eigenvectors:
  1.000  0.000  0.000  0.000  0.000
  0.000  1.000  0.000  0.000  0.000
  0.000  0.000  1.000  0.000  0.000
  0.000  0.000  0.000  1.000  0.000
  0.000  0.000  0.000  0.000  1.000
    occupations:
  0.200  0.000  0.000  0.000  0.000
  0.000  0.200  0.000  0.000  0.000
  0.000  0.000  0.200  0.000  0.000
  0.000  0.000  0.000  0.200  0.000
  0.000  0.000  0.000  0.000  0.200
atomic mag. moment =     4.000000
atom   19   Tr[ns(na)] (up, down, total) =   5.00000  1.00000  6.00000
   spin  1
    eigenvalues: 
  1.000  1.000  1.000  1.000  1.000
    eigenvectors:
  1.000  0.000  0.000  0.000  0.000
  0.000  1.000  0.000  0.000  0.000
  0.000  0.000  1.000  0.000  0.000
  0.000  0.000  0.000  1.000  0.000
  0.000  0.000  0.000  0.000  1.000
    occupations:
  1.000  0.000  0.000  0.000  0.000
  0.000  1.000  0.000  0.000  0.000
  0.000  0.000  1.000  0.000  0.000
  0.000  0.000  0.000  1.000  0.000
  0.000  0.000  0.000  0.000  1.000
   spin  2
    eigenvalues: 
  0.200  0.200  0.200  0.200  0.200
    eigenvectors:
  1.000  0.000  0.000  0.000  0.000
  0.000  1.000  0.000  0.000  0.000
  0.000  0.000  1.000  0.000  0.000
  0.000  0.000  0.000  1.000  0.000
  0.000  0.000  0.000  0.000  1.000
    occupations:
  0.200  0.000  0.000  0.000  0.000
  0.000  0.200  0.000  0.000  0.000
  0.000  0.000  0.200  0.000  0.000
  0.000  0.000  0.000  0.200  0.000
  0.000  0.000  0.000  0.000  0.200
atomic mag. moment =     4.000000
atom   20   Tr[ns(na)] (up, down, total) =   5.00000  1.00000  6.00000
   spin  1
    eigenvalues: 
  1.000  1.000  1.000  1.000  1.000
    eigenvectors:
  1.000  0.000  0.000  0.000  0.000
  0.000  1.000  0.000  0.000  0.000
  0.000  0.000  1.000  0.000  0.000
  0.000  0.000  0.000  1.000  0.000
  0.000  0.000  0.000  0.000  1.000
    occupations:
  1.000  0.000  0.000  0.000  0.000
  0.000  1.000  0.000  0.000  0.000
  0.000  0.000  1.000  0.000  0.000
  0.000  0.000  0.000  1.000  0.000
  0.000  0.000  0.000  0.000  1.000
   spin  2
    eigenvalues: 
  0.200  0.200  0.200  0.200  0.200
    eigenvectors:
  1.000  0.000  0.000  0.000  0.000
  0.000  1.000  0.000  0.000  0.000
  0.000  0.000  1.000  0.000  0.000
  0.000  0.000  0.000  1.000  0.000
  0.000  0.000  0.000  0.000  1.000
    occupations:
  0.200  0.000  0.000  0.000  0.000
  0.000  0.200  0.000  0.000  0.000
  0.000  0.000  0.200  0.000  0.000
  0.000  0.000  0.000  0.200  0.000
  0.000  0.000  0.000  0.000  0.200
atomic mag. moment =     4.000000
N of occupied +U levels = 120.0000000
 --- exit write_ns ---
 Atomic wfc used for LDA+U Projector are NOT orthogonalized
     Starting wfc are  272 randomized atomic wfcs
     Checking if some PAW data can be deallocated... 
       node    0, deallocated PAW data for type:  2
       node    0, deallocated PAW data for type:  3
       node    1, deallocated PAW data for type:  2
       node    1, deallocated PAW data for type:  3
       node    2, deallocated PAW data for type:  2
       node    2, deallocated PAW data for type:  3
       node    3, deallocated PAW data for type:  2
       node    3, deallocated PAW data for type:  3
       node    4, deallocated PAW data for type:  2
       node    4, deallocated PAW data for type:  3
       node    5, deallocated PAW data for type:  2
       node    5, deallocated PAW data for type:  3
       node    6, deallocated PAW data for type:  2
       node    6, deallocated PAW data for type:  3
       node    7, deallocated PAW data for type:  2
       node    7, deallocated PAW data for type:  3
       node    8, deallocated PAW data for type:  2
       node    8, deallocated PAW data for type:  3
       node    9, deallocated PAW data for type:  2
       node    9, deallocated PAW data for type:  3
       node   10, deallocated PAW data for type:  2
       node   10, deallocated PAW data for type:  3
       node   11, deallocated PAW data for type:  2
       node   11, deallocated PAW data for type:  3
       node   12, deallocated PAW data for type:  2
       node   12, deallocated PAW data for type:  3
       node   13, deallocated PAW data for type:  2
       node   13, deallocated PAW data for type:  3
       node   14, deallocated PAW data for type:  2
       node   14, deallocated PAW data for type:  3
       node   15, deallocated PAW data for type:  2
       node   15, deallocated PAW data for type:  3
       node   16, deallocated PAW data for type:  2
       node   16, deallocated PAW data for type:  3
       node   17, deallocated PAW data for type:  2
       node   17, deallocated PAW data for type:  3
       node   18, deallocated PAW data for type:  2
       node   18, deallocated PAW data for type:  3
       node   19, deallocated PAW data for type:  2
       node   19, deallocated PAW data for type:  3
       node   20, deallocated PAW data for type:  2
       node   20, deallocated PAW data for type:  3
       node   21, deallocated PAW data for type:  2
       node   21, deallocated PAW data for type:  3
       node   22, deallocated PAW data for type:  2
       node   22, deallocated PAW data for type:  3
       node   23, deallocated PAW data for type:  2
       node   23, deallocated PAW data for type:  3
       node   24, deallocated PAW data for type:  2
       node   24, deallocated PAW data for type:  3
       node   25, deallocated PAW data for type:  2
       node   25, deallocated PAW data for type:  3
       node   26, deallocated PAW data for type:  2
       node   26, deallocated PAW data for type:  3
       node   27, deallocated PAW data for type:  2
       node   27, deallocated PAW data for type:  3
       node   28, deallocated PAW data for type:  2
       node   28, deallocated PAW data for type:  3
       node   29, deallocated PAW data for type:  2
       node   29, deallocated PAW data for type:  3
       node   30, deallocated PAW data for type:  2
       node   30, deallocated PAW data for type:  3
       node   31, deallocated PAW data for type:  2
       node   31, deallocated PAW data for type:  3
       node   32, deallocated PAW data for type:  2
       node   32, deallocated PAW data for type:  3
       node   33, deallocated PAW data for type:  2
       node   33, deallocated PAW data for type:  3
       node   34, deallocated PAW data for type:  2
       node   34, deallocated PAW data for type:  3
       node   35, deallocated PAW data for type:  2
       node   35, deallocated PAW data for type:  3
       node   36, deallocated PAW data for type:  2
       node   36, deallocated PAW data for type:  3
       node   37, deallocated PAW data for type:  2
       node   37, deallocated PAW data for type:  3
       node   38, deallocated PAW data for type:  2
       node   38, deallocated PAW data for type:  3
       node   39, deallocated PAW data for type:  2
       node   39, deallocated PAW data for type:  3
       node   40, deallocated PAW data for type:  2
       node   40, deallocated PAW data for type:  3
       node   41, deallocated PAW data for type:  2
       node   41, deallocated PAW data for type:  3
       node   42, deallocated PAW data for type:  1
       node   42, deallocated PAW data for type:  3
       node   43, deallocated PAW data for type:  1
       node   43, deallocated PAW data for type:  3
       node   44, deallocated PAW data for type:  1
       node   44, deallocated PAW data for type:  2
       node   45, deallocated PAW data for type:  1
       node   45, deallocated PAW data for type:  2
       node   46, deallocated PAW data for type:  1
       node   46, deallocated PAW data for type:  2
       node   47, deallocated PAW data for type:  1
       node   47, deallocated PAW data for type:  2

     total cpu time spent up to now is       47.4 secs

     per-process dynamical memory:   381.4 Mb

     Self-consistent Calculation

     iteration #  1     ecut=    95.00 Ry     beta=0.50
     Davidson diagonalization with overlap
     ethr =  1.00E-02,  avg # of iterations =  2.9
 --- enter write_ns ---
 LDA+U parameters:
U( 1)     =  0.00000000
alpha( 1) =  0.00000000
atom    1   Tr[ns(na)] (up, down, total) =   4.97398  1.02504  5.99902
   spin  1
    eigenvalues: 
  0.994  0.994  0.994  0.996  0.996
    eigenvectors:
  0.087  0.868  0.036  0.008  0.000
  0.523  0.008  0.467  0.001  0.001
  0.389  0.116  0.494  0.000  0.001
  0.000  0.000  0.002  0.016  0.982
  0.000  0.008  0.002  0.974  0.016
    occupations:
  0.994 -0.000  0.000  0.000  0.000
 -0.000  0.994 -0.000  0.000 -0.000
  0.000 -0.000  0.994 -0.000 -0.000
  0.000  0.000 -0.000  0.996  0.000
  0.000 -0.000 -0.000  0.000  0.996
   spin  2
    eigenvalues: 
  0.182  0.183  0.209  0.223  0.228
    eigenvectors:
  0.000  0.000  1.000  0.000  0.000
  0.415  0.585  0.000  0.000  0.000
  0.585  0.415  0.000  0.000  0.000
  0.000  0.000  0.000  0.997  0.003
  0.000  0.000  0.000  0.003  0.997
    occupations:
  0.209  0.000  0.000  0.000  0.000
  0.000  0.183  0.000 -0.000 -0.000
  0.000  0.000  0.182  0.000 -0.001
  0.000 -0.000  0.000  0.223 -0.000
  0.000 -0.000 -0.001 -0.000  0.228
atomic mag. moment =     3.948943
atom    2   Tr[ns(na)] (up, down, total) =   4.97404  1.02403  5.99807
   spin  1
    eigenvalues: 
  0.994  0.994  0.994  0.996  0.996
    eigenvectors:
  0.014  0.938  0.042  0.007  0.000
  0.492  0.005  0.502  0.002  0.001
  0.495  0.052  0.453  0.000  0.001
  0.000  0.000  0.002  0.010  0.988
  0.000  0.006  0.002  0.982  0.010
    occupations:
  0.994 -0.000 -0.000  0.000 -0.000
 -0.000  0.994  0.000  0.000  0.000
 -0.000  0.000  0.994  0.000 -0.000
  0.000  0.000  0.000  0.996 -0.000
 -0.000  0.000 -0.000 -0.000  0.996
   spin  2
    eigenvalues: 
  0.182  0.183  0.209  0.222  0.228
    eigenvectors:
  0.000  0.000  0.999  0.000  0.000
  0.397  0.603  0.000  0.000  0.000
  0.603  0.397  0.000  0.000  0.000
  0.000  0.000  0.000  0.997  0.003
  0.000  0.000  0.000  0.003  0.997
    occupations:
  0.209  0.000 -0.000 -0.000 -0.000
  0.000  0.182 -0.000 -0.000  0.000
 -0.000 -0.000  0.182 -0.000  0.000
 -0.000 -0.000 -0.000  0.222  0.000
 -0.000  0.000  0.000  0.000  0.228
atomic mag. moment =     3.950011
atom    3   Tr[ns(na)] (up, down, total) =   4.97396  1.02414  5.99809
   spin  1
    eigenvalues: 
  0.994  0.994  0.994  0.996  0.997
    eigenvectors:
  0.869  0.089  0.034  0.006  0.002
  0.095  0.901  0.000  0.004  0.000
  0.031  0.003  0.966  0.001  0.000
  0.002  0.000  0.000  0.000  0.997
  0.003  0.007  0.000  0.989  0.000
    occupations:
  0.994  0.000  0.000  0.000 -0.000
  0.000  0.994 -0.000 -0.000 -0.000
  0.000 -0.000  0.994 -0.000  0.000
  0.000 -0.000 -0.000  0.997 -0.000
 -0.000 -0.000  0.000 -0.000  0.996
   spin  2
    eigenvalues: 
  0.182  0.183  0.209  0.222  0.228
    eigenvectors:
  0.000  0.000  0.999  0.001  0.000
  0.966  0.033  0.000  0.000  0.000
  0.033  0.966  0.000  0.000  0.000
  0.000  0.000  0.001  0.999  0.000
  0.000  0.000  0.000  0.000  1.000
    occupations:
  0.209 -0.000  0.000 -0.000 -0.000
 -0.000  0.182 -0.000  0.000 -0.000
  0.000 -0.000  0.183 -0.000  0.000
 -0.000  0.000 -0.000  0.222  0.000
 -0.000 -0.000  0.000  0.000  0.228
atomic mag. moment =     3.949819
atom    4   Tr[ns(na)] (up, down, total) =   4.97395  1.02230  5.99625
   spin  1
    eigenvalues: 
  0.994  0.994  0.994  0.996  0.997
    eigenvectors:
  0.937  0.037  0.019  0.006  0.001
  0.036  0.955  0.005  0.004  0.000
  0.021  0.002  0.975  0.001  0.001
  0.002  0.000  0.000  0.000  0.998
  0.005  0.005  0.001  0.989  0.000
    occupations:
  0.994  0.000 -0.000  0.000  0.000
  0.000  0.994  0.000 -0.000  0.000
 -0.000  0.000  0.994  0.000  0.000
  0.000 -0.000  0.000  0.997  0.000
  0.000  0.000  0.000  0.000  0.996
   spin  2
    eigenvalues: 
  0.182  0.182  0.209  0.222  0.228
    eigenvectors:
  0.000  0.000  0.999  0.000  0.001
  0.971  0.029  0.000  0.000  0.000
  0.029  0.971  0.000  0.000  0.000
  0.000  0.000  0.000  0.999  0.001
  0.000  0.000  0.001  0.001  0.998
    occupations:
  0.209 -0.000 -0.000  0.000  0.001
 -0.000  0.182  0.000  0.000  0.000
 -0.000  0.000  0.182  0.000  0.000
  0.000  0.000  0.000  0.222  0.000
  0.001  0.000  0.000  0.000  0.228
atomic mag. moment =     3.951656
atom    5   Tr[ns(na)] (up, down, total) =   4.97985  2.23889  7.21874
   spin  1
    eigenvalues: 
  0.995  0.996  0.996  0.996  0.997
    eigenvectors:
  0.000  0.000  0.009  0.000  0.990
  0.002  0.964  0.034  0.000  0.000
  0.901  0.002  0.000  0.097  0.000
  0.000  0.034  0.955  0.001  0.010
  0.097  0.000  0.001  0.902  0.000
    occupations:
  0.997  0.000 -0.000  0.000 -0.000
  0.000  0.996  0.000 -0.000  0.000
 -0.000  0.000  0.996 -0.000 -0.000
  0.000 -0.000 -0.000  0.996  0.000
 -0.000  0.000 -0.000  0.000  0.996
   spin  2
    eigenvalues: 
  0.388  0.398  0.483  0.484  0.486
    eigenvectors:
  0.997  0.003  0.000  0.000  0.000
  0.000  0.000  0.039  0.090  0.870
  0.000  0.000  0.106  0.843  0.051
  0.003  0.997  0.000  0.000  0.000
  0.000  0.000  0.854  0.067  0.079
    occupations:
  0.388 -0.000 -0.000 -0.001  0.001
 -0.000  0.486 -0.000  0.000 -0.001
 -0.000 -0.000  0.484 -0.000  0.001
 -0.001  0.000 -0.000  0.398 -0.000
  0.001 -0.001  0.001 -0.000  0.483
atomic mag. moment =     2.740965
atom    6   Tr[ns(na)] (up, down, total) =   4.97903  2.24845  7.22748
   spin  1
    eigenvalues: 
  0.995  0.995  0.996  0.996  0.997
    eigenvectors:
  0.000  0.000  0.000  0.001  0.999
  0.004  0.995  0.000  0.000  0.000
  0.992  0.004  0.004  0.000  0.000
  0.000  0.001  0.003  0.996  0.001
  0.004  0.000  0.993  0.003  0.000
    occupations:
  0.997  0.000 -0.000 -0.000  0.000
  0.000  0.995  0.000 -0.000  0.000
 -0.000  0.000  0.995 -0.000  0.000
 -0.000 -0.000 -0.000  0.996  0.000
  0.000  0.000  0.000  0.000  0.996
   spin  2
    eigenvalues: 
  0.395  0.398  0.482  0.485  0.489
    eigenvectors:
  0.978  0.022  0.000  0.000  0.000
  0.000  0.000  0.000  0.004  0.996
  0.000  0.000  0.061  0.935  0.003
  0.022  0.978  0.000  0.000  0.000
  0.000  0.000  0.939  0.061  0.000
    occupations:
  0.395  0.001  0.000  0.001 -0.000
  0.001  0.489  0.000 -0.000 -0.000
  0.000  0.000  0.484  0.000 -0.001
  0.001 -0.000  0.000  0.398 -0.000
 -0.000 -0.000 -0.001 -0.000  0.482
atomic mag. moment =     2.730576
atom    7   Tr[ns(na)] (up, down, total) =   4.97959  2.24859  7.22818
   spin  1
    eigenvalues: 
  0.995  0.996  0.996  0.996  0.997
    eigenvectors:
  0.000  0.002  0.000  0.029  0.970
  0.012  0.977  0.000  0.010  0.001
  0.986  0.013  0.001  0.001  0.000
  0.001  0.009  0.001  0.960  0.030
  0.001  0.000  0.999  0.001  0.000
    occupations:
  0.997  0.000 -0.000  0.000  0.000
  0.000  0.996  0.000 -0.000 -0.000
 -0.000  0.000  0.995  0.000  0.000
  0.000 -0.000  0.000  0.996  0.000
  0.000 -0.000  0.000  0.000  0.996
   spin  2
    eigenvalues: 
  0.396  0.399  0.481  0.485  0.487
    eigenvectors:
  0.954  0.046  0.000  0.000  0.000
  0.000  0.000  0.002  0.980  0.018
  0.000  0.000  0.006  0.019  0.976
  0.046  0.954  0.000  0.000  0.000
  0.000  0.000  0.992  0.001  0.007
    occupations:
  0.396  0.001 -0.000  0.001  0.000
  0.001  0.485  0.000  0.000  0.000
 -0.000  0.000  0.487 -0.000  0.000
  0.001  0.000 -0.000  0.399  0.000
  0.000  0.000  0.000  0.000  0.481
atomic mag. moment =     2.730999
atom    8   Tr[ns(na)] (up, down, total) =   4.98060  2.23865  7.21925
   spin  1
    eigenvalues: 
  0.996  0.996  0.996  0.996  0.997
    eigenvectors:
  0.000  0.000  0.001  0.001  0.998
  0.004  0.000  0.995  0.000  0.001
  0.060  0.938  0.001  0.000  0.000
  0.000  0.000  0.000  0.999  0.001
  0.935  0.061  0.003  0.000  0.000
    occupations:
  0.997 -0.000  0.000 -0.000 -0.000
 -0.000  0.996 -0.000 -0.000  0.000
  0.000 -0.000  0.996 -0.000  0.000
 -0.000 -0.000 -0.000  0.996  0.000
 -0.000  0.000  0.000  0.000  0.996
   spin  2
    eigenvalues: 
  0.393  0.398  0.481  0.481  0.486
    eigenvectors:
  0.993  0.007  0.000  0.000  0.000
  0.000  0.000  0.288  0.711  0.002
  0.000  0.000  0.605  0.262  0.133
  0.007  0.993  0.000  0.000  0.000
  0.000  0.000  0.108  0.027  0.865
    occupations:
  0.393  0.000 -0.000  0.000 -0.000
  0.000  0.481 -0.000  0.000 -0.000
 -0.000 -0.000  0.482 -0.000 -0.002
  0.000  0.000 -0.000  0.398  0.000
 -0.000 -0.000 -0.002  0.000  0.485
atomic mag. moment =     2.741947
atom    9   Tr[ns(na)] (up, down, total) =   4.97777  2.23734  7.21511
   spin  1
    eigenvalues: 
  0.994  0.995  0.995  0.996  0.997
    eigenvectors:
  0.000  0.000  0.001  0.001  0.998
  0.554  0.443  0.002  0.000  0.000
  0.425  0.547  0.025  0.003  0.000
  0.002  0.004  0.006  0.987  0.001
  0.019  0.006  0.966  0.008  0.000
    occupations:
  0.997 -0.000 -0.000  0.000  0.000
 -0.000  0.994 -0.000  0.000 -0.000
 -0.000 -0.000  0.995 -0.000 -0.000
  0.000  0.000 -0.000  0.996 -0.000
  0.000 -0.000 -0.000 -0.000  0.995
   spin  2
    eigenvalues: 
  0.353  0.383  0.491  0.493  0.518
    eigenvectors:
  0.996  0.000  0.000  0.001  0.004
  0.000  0.000  0.632  0.366  0.001
  0.000  0.000  0.366  0.617  0.017
  0.000  0.999  0.000  0.000  0.000
  0.004  0.000  0.002  0.016  0.978
    occupations:
  0.353  0.002  0.001 -0.000 -0.010
  0.002  0.492  0.001  0.001  0.001
  0.001  0.001  0.492  0.001  0.003
 -0.000  0.001  0.001  0.383  0.002
 -0.010  0.001  0.003  0.002  0.517
atomic mag. moment =     2.740424
atom   10   Tr[ns(na)] (up, down, total) =   4.97783  2.24134  7.21917
   spin  1
    eigenvalues: 
  0.994  0.995  0.995  0.996  0.997
    eigenvectors:
  0.000  0.000  0.000  0.000  0.999
  0.567  0.430  0.003  0.000  0.000
  0.407  0.559  0.031  0.003  0.000
  0.002  0.004  0.009  0.986  0.000
  0.024  0.008  0.957  0.011  0.000
    occupations:
  0.997 -0.000  0.000  0.000 -0.000
 -0.000  0.995  0.000  0.000  0.000
  0.000  0.000  0.995  0.000 -0.000
  0.000  0.000  0.000  0.996  0.000
 -0.000  0.000 -0.000  0.000  0.995
   spin  2
    eigenvalues: 
  0.353  0.384  0.491  0.494  0.519
    eigenvectors:
  0.996  0.000  0.000  0.000  0.004
  0.000  0.000  0.544  0.455  0.001
  0.000  0.000  0.453  0.531  0.015
  0.000  0.999  0.000  0.000  0.000
  0.004  0.000  0.003  0.013  0.980
    occupations:
  0.354  0.002 -0.001 -0.001  0.010
  0.002  0.493 -0.001  0.001 -0.001
 -0.001 -0.001  0.493 -0.000  0.003
 -0.001  0.001 -0.000  0.384 -0.002
  0.010 -0.001  0.003 -0.002  0.518
atomic mag. moment =     2.736490
atom   11   Tr[ns(na)] (up, down, total) =   4.97862  2.24255  7.22117
   spin  1
    eigenvalues: 
  0.995  0.995  0.995  0.996  0.997
    eigenvectors:
  0.000  0.000  0.001  0.000  0.999
  0.915  0.071  0.014  0.000  0.000
  0.061  0.916  0.023  0.000  0.000
  0.000  0.000  0.001  0.999  0.000
  0.024  0.013  0.962  0.001  0.001
    occupations:
  0.997  0.000 -0.000 -0.000 -0.000
  0.000  0.995  0.000  0.000 -0.000
 -0.000  0.000  0.995 -0.000  0.000
 -0.000  0.000 -0.000  0.996 -0.000
 -0.000 -0.000  0.000 -0.000  0.995
   spin  2
    eigenvalues: 
  0.349  0.384  0.493  0.494  0.522
    eigenvectors:
  0.998  0.000  0.000  0.000  0.002
  0.000  0.000  0.702  0.293  0.005
  0.000  0.000  0.286  0.705  0.009
  0.000  1.000  0.000  0.000  0.000
  0.002  0.000  0.013  0.002  0.983
    occupations:
  0.349  0.001 -0.001  0.000  0.008
  0.001  0.494  0.000 -0.001  0.002
 -0.001  0.000  0.494  0.001 -0.003
  0.000 -0.001  0.001  0.384 -0.000
  0.008  0.002 -0.003 -0.000  0.521
atomic mag. moment =     2.736073
atom   12   Tr[ns(na)] (up, down, total) =   4.97865  2.24032  7.21897
   spin  1
    eigenvalues: 
  0.995  0.995  0.995  0.997  0.997
    eigenvectors:
  0.000  0.000  0.001  0.000  0.999
  0.853  0.128  0.018  0.000  0.000
  0.115  0.864  0.021  0.000  0.000
  0.000  0.000  0.002  0.997  0.000
  0.032  0.008  0.958  0.002  0.000
    occupations:
  0.997  0.000  0.000 -0.000  0.000
  0.000  0.995  0.000  0.000  0.000
  0.000  0.000  0.995  0.000  0.000
 -0.000  0.000  0.000  0.997  0.000
  0.000  0.000  0.000  0.000  0.995
   spin  2
    eigenvalues: 
  0.349  0.384  0.493  0.494  0.521
    eigenvectors:
  0.997  0.000  0.000  0.000  0.003
  0.000  0.000  0.993  0.000  0.007
  0.000  0.000  0.000  0.988  0.012
  0.000  1.000  0.000  0.000  0.000
  0.002  0.000  0.007  0.012  0.979
    occupations:
  0.349  0.002  0.001  0.000 -0.009
  0.002  0.493  0.000 -0.001 -0.002
  0.001  0.000  0.494 -0.001 -0.003
  0.000 -0.001 -0.001  0.384  0.000
 -0.009 -0.002 -0.003  0.000  0.520
atomic mag. moment =     2.738336
atom   13   Tr[ns(na)] (up, down, total) =   4.96068  2.19754  7.15822
   spin  1
    eigenvalues: 
  0.981  0.993  0.995  0.996  0.996
    eigenvectors:
  0.999  0.000  0.000  0.001  0.000
  0.000  0.000  0.986  0.014  0.000
  0.000  0.965  0.000  0.000  0.034
  0.001  0.000  0.014  0.979  0.007
  0.000  0.035  0.000  0.007  0.959
    occupations:
  0.981  0.000  0.000 -0.000 -0.000
  0.000  0.995  0.000  0.000  0.000
  0.000  0.000  0.994  0.000 -0.001
 -0.000  0.000  0.000  0.996  0.000
 -0.000  0.000 -0.001  0.000  0.996
   spin  2
    eigenvalues: 
  0.388  0.406  0.417  0.477  0.509
    eigenvectors:
  0.363  0.634  0.000  0.000  0.003
  0.000  0.007  0.000  0.000  0.993
  0.000  0.000  0.823  0.176  0.000
  0.636  0.359  0.000  0.000  0.004
  0.000  0.000  0.176  0.823  0.000
    occupations:
  0.400 -0.005  0.000  0.009  0.000
 -0.005  0.508 -0.000 -0.007 -0.000
  0.000 -0.000  0.428  0.000  0.023
  0.009 -0.007  0.000  0.395  0.000
  0.000 -0.000  0.023  0.000  0.467
atomic mag. moment =     2.763136
atom   14   Tr[ns(na)] (up, down, total) =   4.98041  2.20252  7.18294
   spin  1
    eigenvalues: 
  0.995  0.996  0.996  0.997  0.998
    eigenvectors:
  0.000  0.025  0.000  0.090  0.885
  0.000  0.971  0.000  0.011  0.018
  0.964  0.000  0.035  0.000  0.000
  0.000  0.003  0.000  0.899  0.098
  0.035  0.000  0.965  0.000  0.000
    occupations:
  0.997  0.000  0.000 -0.000  0.000
  0.000  0.996  0.000  0.000  0.000
  0.000  0.000  0.995 -0.000 -0.000
 -0.000  0.000 -0.000  0.997 -0.000
  0.000  0.000 -0.000 -0.000  0.996
   spin  2
    eigenvalues: 
  0.392  0.399  0.432  0.483  0.498
    eigenvectors:
  0.085  0.915  0.000  0.000  0.000
  0.001  0.000  0.000  0.000  0.998
  0.000  0.000  0.002  0.997  0.000
  0.914  0.084  0.000  0.000  0.002
  0.000  0.000  0.998  0.002  0.000
    occupations:
  0.398 -0.001  0.000  0.002 -0.000
 -0.001  0.497 -0.000 -0.004 -0.000
  0.000 -0.000  0.482  0.000  0.002
  0.002 -0.004  0.000  0.393 -0.000
 -0.000 -0.000  0.002 -0.000  0.432
atomic mag. moment =     2.777891
atom   15   Tr[ns(na)] (up, down, total) =   4.98129  2.13278  7.11407
   spin  1
    eigenvalues: 
  0.995  0.996  0.996  0.996  0.998
    eigenvectors:
  0.000  0.003  0.000  0.028  0.968
  0.000  0.984  0.001  0.009  0.005
  0.111  0.001  0.887  0.001  0.000
  0.000  0.011  0.001  0.962  0.026
  0.889  0.001  0.110  0.000  0.000
    occupations:
  0.998 -0.000  0.000  0.000 -0.000
 -0.000  0.996 -0.000 -0.000 -0.000
  0.000 -0.000  0.996 -0.000 -0.000
  0.000 -0.000 -0.000  0.996  0.000
 -0.000 -0.000 -0.000  0.000  0.995
   spin  2
    eigenvalues: 
  0.374  0.389  0.423  0.464  0.483
    eigenvectors:
  0.011  0.983  0.000  0.006  0.000
  0.008  0.008  0.000  0.984  0.000
  0.000  0.000  0.005  0.000  0.995
  0.981  0.009  0.000  0.010  0.000
  0.000  0.000  0.995  0.000  0.005
    occupations:
  0.389 -0.006 -0.000 -0.002 -0.000
 -0.006  0.463 -0.000  0.009 -0.001
 -0.000 -0.000  0.483 -0.000 -0.004
 -0.002  0.009 -0.000  0.375 -0.000
 -0.000 -0.001 -0.004 -0.000  0.424
atomic mag. moment =     2.848512
atom   16   Tr[ns(na)] (up, down, total) =   4.97721  2.07753  7.05474
   spin  1
    eigenvalues: 
  0.994  0.995  0.996  0.996  0.996
    eigenvectors:
  0.999  0.000  0.000  0.000  0.001
  0.001  0.000  0.664  0.025  0.310
  0.000  0.015  0.017  0.961  0.007
  0.000  0.000  0.317  0.000  0.682
  0.001  0.985  0.001  0.014  0.000
    occupations:
  0.994  0.000 -0.000 -0.000 -0.000
  0.000  0.996  0.000 -0.000 -0.000
 -0.000  0.000  0.996  0.000  0.000
 -0.000 -0.000  0.000  0.996 -0.000
 -0.000 -0.000  0.000 -0.000  0.995
   spin  2
    eigenvalues: 
  0.328  0.394  0.450  0.451  0.455
    eigenvectors:
  0.998  0.001  0.001  0.000  0.000
  0.001  0.003  0.778  0.215  0.002
  0.000  0.000  0.131  0.555  0.314
  0.001  0.996  0.002  0.001  0.000
  0.000  0.000  0.087  0.229  0.684
    occupations:
  0.328  0.005 -0.001 -0.002  0.000
  0.005  0.450  0.000  0.003 -0.000
 -0.001  0.000  0.452  0.000  0.002
 -0.002  0.003  0.000  0.394 -0.000
  0.000 -0.000  0.002 -0.000  0.454
atomic mag. moment =     2.899676
atom   17   Tr[ns(na)] (up, down, total) =   4.93948  1.30047  6.23996
   spin  1
    eigenvalues: 
  0.972  0.983  0.993  0.995  0.996
    eigenvectors:
  0.086  0.003  0.138  0.582  0.191
  0.087  0.243  0.383  0.246  0.040
  0.032  0.658  0.185  0.092  0.033
  0.001  0.001  0.225  0.056  0.717
  0.793  0.094  0.069  0.025  0.019
    occupations:
  0.993 -0.002 -0.000  0.001  0.006
 -0.002  0.989 -0.006  0.001  0.004
 -0.000 -0.006  0.986 -0.001  0.001
  0.001  0.001 -0.001  0.996 -0.001
  0.006  0.004  0.001 -0.001  0.975
   spin  2
    eigenvalues: 
  0.174  0.204  0.245  0.296  0.381
    eigenvectors:
  0.688  0.272  0.004  0.030  0.007
  0.162  0.362  0.048  0.098  0.329
  0.098  0.269  0.058  0.196  0.378
  0.016  0.093  0.890  0.000  0.002
  0.036  0.003  0.001  0.676  0.284
    occupations:
  0.188  0.007 -0.010  0.001  0.026
  0.007  0.268  0.077 -0.014 -0.032
 -0.010  0.077  0.289  0.006 -0.023
  0.001 -0.014  0.006  0.240  0.002
  0.026 -0.032 -0.023  0.002  0.316
atomic mag. moment =     3.639010
atom   18   Tr[ns(na)] (up, down, total) =   4.93930  1.30105  6.24035
   spin  1
    eigenvalues: 
  0.972  0.983  0.993  0.995  0.996
    eigenvectors:
  0.087  0.003  0.140  0.580  0.190
  0.089  0.238  0.379  0.251  0.043
  0.034  0.659  0.181  0.091  0.034
  0.001  0.001  0.230  0.053  0.714
  0.788  0.098  0.069  0.025  0.020
    occupations:
  0.993 -0.002  0.000  0.001 -0.006
 -0.002  0.989  0.006  0.001 -0.004
  0.000  0.006  0.986  0.001  0.001
  0.001  0.001  0.001  0.996  0.001
 -0.006 -0.004  0.001  0.001  0.975
   spin  2
    eigenvalues: 
  0.174  0.203  0.246  0.297  0.381
    eigenvectors:
  0.682  0.277  0.004  0.029  0.007
  0.164  0.360  0.051  0.098  0.326
  0.100  0.264  0.058  0.202  0.376
  0.017  0.096  0.886  0.000  0.001
  0.037  0.003  0.001  0.670  0.290
    occupations:
  0.188  0.007  0.010  0.001 -0.026
  0.007  0.268 -0.077 -0.015  0.033
  0.010 -0.077  0.289 -0.006 -0.023
  0.001 -0.015 -0.006  0.240 -0.001
 -0.026  0.033 -0.023 -0.001  0.317
atomic mag. moment =     3.638257
atom   19   Tr[ns(na)] (up, down, total) =   4.95536  1.05985  6.01522
   spin  1
    eigenvalues: 
  0.980  0.991  0.992  0.995  0.997
    eigenvectors:
  0.230  0.258  0.087  0.300  0.126
  0.003  0.061  0.525  0.403  0.009
  0.295  0.154  0.287  0.261  0.004
  0.058  0.007  0.064  0.028  0.842
  0.415  0.520  0.038  0.008  0.020
    occupations:
  0.990  0.000  0.004  0.003 -0.003
  0.000  0.993  0.001 -0.001 -0.001
  0.004  0.001  0.989 -0.002  0.004
  0.003 -0.001 -0.002  0.996  0.003
 -0.003 -0.001  0.004  0.003  0.987
   spin  2
    eigenvalues: 
  0.157  0.190  0.220  0.241  0.252
    eigenvectors:
  0.540  0.046  0.010  0.351  0.054
  0.049  0.547  0.196  0.056  0.151
  0.176  0.087  0.000  0.006  0.731
  0.000  0.245  0.669  0.066  0.021
  0.235  0.075  0.126  0.521  0.044
    occupations:
  0.194 -0.006 -0.025 -0.007 -0.031
 -0.006  0.207 -0.023  0.010  0.005
 -0.025 -0.023  0.230  0.009 -0.015
 -0.007  0.010  0.009  0.215 -0.001
 -0.031  0.005 -0.015 -0.001  0.215
atomic mag. moment =     3.895511
atom   20   Tr[ns(na)] (up, down, total) =   4.95551  1.06075  6.01626
   spin  1
    eigenvalues: 
  0.980  0.991  0.992  0.995  0.997
    eigenvectors:
  0.228  0.256  0.092  0.301  0.124
  0.002  0.058  0.521  0.409  0.009
  0.301  0.155  0.285  0.255  0.004
  0.057  0.006  0.065  0.027  0.843
  0.412  0.525  0.036  0.007  0.020
    occupations:
  0.991  0.000 -0.004  0.003  0.003
  0.000  0.993 -0.001 -0.001  0.001
 -0.004 -0.001  0.989  0.002  0.004
  0.003 -0.001  0.002  0.996 -0.003
  0.003  0.001  0.004 -0.003  0.987
   spin  2
    eigenvalues: 
  0.157  0.190  0.220  0.241  0.252
    eigenvectors:
  0.539  0.046  0.008  0.349  0.059
  0.050  0.549  0.192  0.057  0.153
  0.176  0.089  0.000  0.004  0.731
  0.000  0.241  0.676  0.062  0.020
  0.235  0.075  0.124  0.528  0.038
    occupations:
  0.194 -0.005  0.025 -0.007  0.032
 -0.005  0.207  0.023  0.010 -0.005
  0.025  0.023  0.230 -0.009 -0.015
 -0.007  0.010 -0.009  0.215  0.001
  0.032 -0.005 -0.015  0.001  0.215
atomic mag. moment =     3.894761
N of occupied +U levels = 134.7812277
 --- exit write_ns ---

     negative rho (up, down):  0.000E+00 0.539E-03
 --- in v_hubbard ---
Hubbard energy    0.0000
 -------

     total cpu time spent up to now is      148.1 secs

     total energy              =   -6681.63874767 Ry
     Harris-Foulkes estimate   =   -6672.04133373 Ry
     estimated scf accuracy    <      28.24830717 Ry

     total magnetization       =    68.02 Bohr mag/cell
     absolute magnetization    =    71.68 Bohr mag/cell

     iteration #  2     ecut=    95.00 Ry     beta=0.50
     Davidson diagonalization with overlap
     ethr =  8.41E-03,  avg # of iterations =  1.0
 --- enter write_ns ---
 LDA+U parameters:
U( 1)     =  0.00000000
alpha( 1) =  0.00000000
atom    1   Tr[ns(na)] (up, down, total) =   4.97863  1.61813  6.59676
   spin  1
    eigenvalues: 
  0.995  0.995  0.996  0.996  0.997
    eigenvectors:
  0.979  0.009  0.009  0.004  0.000
  0.016  0.783  0.200  0.000  0.001
  0.001  0.207  0.791  0.001  0.000
  0.000  0.000  0.000  0.004  0.995
  0.004  0.001  0.000  0.992  0.004
    occupations:
  0.995 -0.000  0.000 -0.000  0.000
 -0.000  0.995 -0.000 -0.000 -0.000
  0.000 -0.000  0.996  0.000 -0.000
 -0.000 -0.000  0.000  0.997  0.000
  0.000 -0.000 -0.000  0.000  0.996
   spin  2
    eigenvalues: 
  0.281  0.283  0.315  0.337  0.402
    eigenvectors:
  0.000  0.000  1.000  0.000  0.000
  0.675  0.325  0.000  0.000  0.000
  0.325  0.675  0.000  0.000  0.000
  0.000  0.000  0.000  1.000  0.000
  0.000  0.000  0.000  0.000  1.000
    occupations:
  0.315  0.000  0.000 -0.000 -0.001
  0.000  0.281  0.001 -0.000  0.000
  0.000  0.001  0.282  0.000 -0.000
 -0.000 -0.000  0.000  0.337 -0.000
 -0.001  0.000 -0.000 -0.000  0.402
atomic mag. moment =     3.360507
atom    2   Tr[ns(na)] (up, down, total) =   4.97864  1.61837  6.59701
   spin  1
    eigenvalues: 
  0.995  0.995  0.996  0.996  0.997
    eigenvectors:
  0.979  0.008  0.009  0.004  0.000
  0.015  0.790  0.193  0.000  0.002
  0.002  0.201  0.797  0.000  0.000
  0.000  0.001  0.001  0.002  0.996
  0.003  0.001  0.000  0.994  0.002
    occupations:
  0.995 -0.000 -0.000 -0.000 -0.000
 -0.000  0.995  0.000 -0.000  0.000
 -0.000  0.000  0.996 -0.000 -0.000
 -0.000 -0.000 -0.000  0.997 -0.000
 -0.000  0.000 -0.000 -0.000  0.996
   spin  2
    eigenvalues: 
  0.281  0.283  0.316  0.337  0.402
    eigenvectors:
  0.000  0.000  0.999  0.000  0.000
  0.658  0.342  0.000  0.000  0.000
  0.342  0.658  0.000  0.000  0.000
  0.000  0.000  0.000  0.999  0.000
  0.000  0.000  0.000  0.000  1.000
    occupations:
  0.316  0.000 -0.000 -0.000  0.001
  0.000  0.282 -0.001  0.000 -0.000
 -0.000 -0.001  0.282 -0.000  0.000
 -0.000  0.000 -0.000  0.337  0.000
  0.001 -0.000  0.000  0.000  0.402
atomic mag. moment =     3.360267
atom    3   Tr[ns(na)] (up, down, total) =   4.97860  1.62037  6.59897
   spin  1
    eigenvalues: 
  0.995  0.995  0.995  0.996  0.997
    eigenvectors:
  0.983  0.000  0.012  0.005  0.000
  0.010  0.393  0.593  0.001  0.004
  0.003  0.606  0.391  0.000  0.000
  0.000  0.001  0.004  0.009  0.987
  0.005  0.001  0.001  0.985  0.008
    occupations:
  0.995  0.000 -0.000  0.000 -0.000
  0.000  0.995 -0.000  0.000 -0.000
 -0.000 -0.000  0.995 -0.000 -0.000
  0.000  0.000 -0.000  0.997 -0.000
 -0.000 -0.000 -0.000 -0.000  0.996
   spin  2
    eigenvalues: 
  0.281  0.283  0.316  0.338  0.402
    eigenvectors:
  0.000  0.000  0.999  0.001  0.000
  0.650  0.350  0.000  0.000  0.000
  0.350  0.650  0.000  0.000  0.000
  0.000  0.000  0.001  0.999  0.000
  0.000  0.000  0.000  0.000  1.000
    occupations:
  0.316 -0.000  0.000 -0.001  0.000
 -0.000  0.282 -0.001  0.000 -0.001
  0.000 -0.001  0.283 -0.001  0.000
 -0.001  0.000 -0.001  0.338  0.000
  0.000 -0.001  0.000  0.000  0.402
atomic mag. moment =     3.358231
atom    4   Tr[ns(na)] (up, down, total) =   4.97861  1.62171  6.60032
   spin  1
    eigenvalues: 
  0.995  0.995  0.995  0.996  0.997
    eigenvectors:
  0.982  0.000  0.012  0.005  0.000
  0.008  0.580  0.408  0.001  0.004
  0.005  0.418  0.577  0.000  0.000
  0.000  0.001  0.003  0.008  0.988
  0.005  0.001  0.001  0.986  0.008
    occupations:
  0.995  0.000  0.000  0.000  0.000
  0.000  0.995  0.000  0.000  0.000
  0.000  0.000  0.995  0.000 -0.000
  0.000  0.000  0.000  0.997  0.000
  0.000  0.000 -0.000  0.000  0.996
   spin  2
    eigenvalues: 
  0.282  0.283  0.316  0.338  0.403
    eigenvectors:
  0.000  0.000  0.999  0.000  0.000
  0.577  0.423  0.000  0.000  0.000
  0.423  0.577  0.000  0.000  0.000
  0.000  0.000  0.000  1.000  0.000
  0.000  0.000  0.000  0.000  1.000
    occupations:
  0.316 -0.001 -0.000 -0.000  0.000
 -0.001  0.282  0.001 -0.000  0.001
 -0.000  0.001  0.283  0.001  0.000
 -0.000 -0.000  0.001  0.338  0.000
  0.000  0.001  0.000  0.000  0.403
atomic mag. moment =     3.356894
atom    5   Tr[ns(na)] (up, down, total) =   4.95524  2.14136  7.09659
   spin  1
    eigenvalues: 
  0.990  0.990  0.991  0.991  0.993
    eigenvectors:
  0.000  0.000  0.000  0.002  0.998
  0.988  0.000  0.001  0.011  0.000
  0.000  0.998  0.000  0.001  0.000
  0.012  0.001  0.001  0.984  0.002
  0.000  0.000  0.998  0.001  0.000
    occupations:
  0.993 -0.000 -0.000 -0.000 -0.000
 -0.000  0.990  0.000  0.000  0.000
 -0.000  0.000  0.990 -0.000  0.000
 -0.000  0.000 -0.000  0.991 -0.000
 -0.000  0.000  0.000 -0.000  0.991
   spin  2
    eigenvalues: 
  0.351  0.363  0.474  0.476  0.477
    eigenvectors:
  0.000  1.000  0.000  0.000  0.000
  0.000  0.000  0.997  0.000  0.003
  0.000  0.000  0.000  0.960  0.039
  1.000  0.000  0.000  0.000  0.000
  0.000  0.000  0.003  0.039  0.957
    occupations:
  0.363 -0.000 -0.000 -0.000  0.000
 -0.000  0.474 -0.000  0.000 -0.000
 -0.000 -0.000  0.476 -0.000  0.000
 -0.000  0.000 -0.000  0.351 -0.000
  0.000 -0.000  0.000 -0.000  0.477
atomic mag. moment =     2.813882
atom    6   Tr[ns(na)] (up, down, total) =   4.95453  2.13575  7.09028
   spin  1
    eigenvalues: 
  0.990  0.990  0.991  0.991  0.993
    eigenvectors:
  0.000  0.001  0.000  0.000  0.999
  0.000  0.960  0.039  0.000  0.001
  0.960  0.000  0.000  0.040  0.000
  0.000  0.039  0.959  0.001  0.000
  0.040  0.000  0.001  0.959  0.000
    occupations:
  0.993  0.000  0.000  0.000 -0.000
  0.000  0.990  0.000  0.000  0.000
  0.000  0.000  0.990  0.000 -0.000
  0.000  0.000  0.000  0.991  0.000
 -0.000  0.000 -0.000  0.000  0.991
   spin  2
    eigenvalues: 
  0.349  0.366  0.472  0.473  0.476
    eigenvectors:
  0.000  1.000  0.000  0.000  0.000
  0.000  0.000  0.000  0.000  1.000
  0.000  0.000  0.989  0.011  0.000
  1.000  0.000  0.000  0.000  0.000
  0.000  0.000  0.011  0.989  0.000
    occupations:
  0.366  0.000  0.000  0.000 -0.000
  0.000  0.476 -0.000 -0.000 -0.000
  0.000 -0.000  0.472  0.000  0.000
  0.000 -0.000  0.000  0.349 -0.000
 -0.000 -0.000  0.000 -0.000  0.473
atomic mag. moment =     2.818774
atom    7   Tr[ns(na)] (up, down, total) =   4.95369  2.13350  7.08720
   spin  1
    eigenvalues: 
  0.989  0.990  0.990  0.991  0.993
    eigenvectors:
  0.001  0.000  0.008  0.000  0.991
  0.996  0.000  0.003  0.000  0.001
  0.000  0.996  0.000  0.004  0.000
  0.003  0.000  0.990  0.000  0.007
  0.000  0.004  0.000  0.996  0.000
    occupations:
  0.993 -0.000  0.000 -0.000 -0.000
 -0.000  0.989 -0.000  0.000  0.000
  0.000 -0.000  0.990 -0.000 -0.000
 -0.000  0.000 -0.000  0.990 -0.000
 -0.000  0.000 -0.000 -0.000  0.991
   spin  2
    eigenvalues: 
  0.350  0.366  0.472  0.473  0.473
    eigenvectors:
  0.000  1.000  0.000  0.000  0.000
  0.000  0.000  0.009  0.985  0.005
  0.000  0.000  0.003  0.006  0.991
  1.000  0.000  0.000  0.000  0.000
  0.000  0.000  0.988  0.009  0.003
    occupations:
  0.366  0.000 -0.000 -0.000 -0.000
  0.000  0.473  0.000  0.000  0.000
 -0.000  0.000  0.473  0.000  0.000
 -0.000  0.000  0.000  0.350 -0.000
 -0.000  0.000  0.000 -0.000  0.472
atomic mag. moment =     2.820190
atom    8   Tr[ns(na)] (up, down, total) =   4.95406  2.12964  7.08370
   spin  1
    eigenvalues: 
  0.990  0.990  0.990  0.991  0.993
    eigenvectors:
  0.000  0.000  0.001  0.000  0.999
  0.000  0.510  0.489  0.000  0.000
  0.969  0.001  0.000  0.030  0.000
  0.001  0.489  0.510  0.000  0.000
  0.030  0.000  0.000  0.970  0.000
    occupations:
  0.993 -0.000 -0.000  0.000  0.000
 -0.000  0.990  0.000 -0.000  0.000
 -0.000  0.000  0.990  0.000  0.000
  0.000 -0.000  0.000  0.990 -0.000
  0.000  0.000  0.000 -0.000  0.991
   spin  2
    eigenvalues: 
  0.350  0.365  0.468  0.469  0.477
    eigenvectors:
  0.001  0.999  0.000  0.000  0.000
  0.000  0.000  0.001  0.999  0.000
  0.000  0.000  0.953  0.001  0.046
  0.999  0.001  0.000  0.000  0.000
  0.000  0.000  0.046  0.000  0.954
    occupations:
  0.365  0.000 -0.000  0.001 -0.000
  0.000  0.469 -0.000  0.000 -0.000
 -0.000 -0.000  0.468 -0.000 -0.002
  0.001  0.000 -0.000  0.350  0.000
 -0.000 -0.000 -0.002  0.000  0.477
atomic mag. moment =     2.824425
atom    9   Tr[ns(na)] (up, down, total) =   4.95530  2.17538  7.13068
   spin  1
    eigenvalues: 
  0.989  0.990  0.991  0.992  0.994
    eigenvectors:
  0.002  0.004  0.004  0.030  0.961
  0.073  0.764  0.083  0.072  0.009
  0.804  0.114  0.074  0.008  0.000
  0.000  0.086  0.001  0.890  0.022
  0.121  0.032  0.839  0.001  0.007
    occupations:
  0.994 -0.000 -0.000  0.000  0.000
 -0.000  0.990 -0.000 -0.001  0.000
 -0.000 -0.000  0.989  0.000  0.000
  0.000 -0.001  0.000  0.992  0.000
  0.000  0.000  0.000  0.000  0.991
   spin  2
    eigenvalues: 
  0.343  0.382  0.478  0.480  0.492
    eigenvectors:
  0.994  0.000  0.001  0.001  0.003
  0.000  0.000  0.001  0.899  0.100
  0.000  0.000  0.749  0.033  0.218
  0.000  0.999  0.000  0.000  0.000
  0.005  0.000  0.248  0.068  0.679
    occupations:
  0.344  0.002  0.000 -0.001 -0.010
  0.002  0.481  0.002  0.001  0.003
  0.000  0.002  0.481  0.000  0.006
 -0.001  0.001  0.000  0.382  0.002
 -0.010  0.003  0.006  0.002  0.487
atomic mag. moment =     2.779918
atom   10   Tr[ns(na)] (up, down, total) =   4.95503  2.17096  7.12599
   spin  1
    eigenvalues: 
  0.989  0.990  0.991  0.992  0.994
    eigenvectors:
  0.002  0.003  0.003  0.032  0.960
  0.077  0.767  0.078  0.070  0.009
  0.801  0.115  0.074  0.009  0.000
  0.000  0.089  0.000  0.888  0.024
  0.121  0.026  0.844  0.001  0.007
    occupations:
  0.994 -0.000  0.000  0.000 -0.000
 -0.000  0.990  0.000 -0.001 -0.000
  0.000  0.000  0.989 -0.000  0.000
  0.000 -0.001 -0.000  0.992 -0.000
 -0.000 -0.000  0.000 -0.000  0.991
   spin  2
    eigenvalues: 
  0.343  0.382  0.476  0.479  0.491
    eigenvectors:
  0.995  0.000  0.001  0.001  0.003
  0.000  0.000  0.003  0.896  0.100
  0.000  0.000  0.768  0.011  0.221
  0.000  0.999  0.000  0.000  0.000
  0.005  0.000  0.227  0.092  0.676
    occupations:
  0.344  0.002  0.000 -0.001  0.010
  0.002  0.480 -0.002  0.001 -0.003
  0.000 -0.002  0.480  0.000  0.006
 -0.001  0.001  0.000  0.382 -0.002
  0.010 -0.003  0.006 -0.002  0.486
atomic mag. moment =     2.784075
atom   11   Tr[ns(na)] (up, down, total) =   4.95533  2.17004  7.12538
   spin  1
    eigenvalues: 
  0.989  0.990  0.991  0.991  0.994
    eigenvectors:
  0.012  0.000  0.012  0.001  0.974
  0.299  0.575  0.039  0.081  0.007
  0.651  0.190  0.133  0.023  0.003
  0.004  0.064  0.048  0.884  0.000
  0.034  0.171  0.768  0.011  0.016
    occupations:
  0.994  0.000 -0.000  0.000 -0.000
  0.000  0.990  0.000  0.000 -0.000
 -0.000  0.000  0.990  0.000 -0.000
  0.000  0.000  0.000  0.991  0.000
 -0.000 -0.000 -0.000  0.000  0.991
   spin  2
    eigenvalues: 
  0.338  0.381  0.479  0.482  0.490
    eigenvectors:
  0.996  0.001  0.000  0.000  0.003
  0.000  0.000  0.790  0.139  0.071
  0.000  0.000  0.205  0.643  0.151
  0.001  0.999  0.000  0.000  0.000
  0.004  0.000  0.005  0.217  0.775
    occupations:
  0.339  0.001 -0.001 -0.001  0.009
  0.001  0.480 -0.002 -0.001  0.002
 -0.001 -0.002  0.482  0.001 -0.003
 -0.001 -0.001  0.001  0.381  0.000
  0.009  0.002 -0.003  0.000  0.488
atomic mag. moment =     2.785288
atom   12   Tr[ns(na)] (up, down, total) =   4.95541  2.17142  7.12683
   spin  1
    eigenvalues: 
  0.989  0.990  0.991  0.991  0.994
    eigenvectors:
  0.012  0.000  0.012  0.001  0.974
  0.301  0.572  0.042  0.079  0.006
  0.651  0.196  0.132  0.019  0.003
  0.004  0.066  0.034  0.895  0.000
  0.032  0.166  0.781  0.005  0.016
    occupations:
  0.994  0.000  0.000  0.000  0.000
  0.000  0.990 -0.000  0.000  0.000
  0.000 -0.000  0.990 -0.000 -0.000
  0.000  0.000 -0.000  0.991 -0.000
  0.000  0.000 -0.000 -0.000  0.991
   spin  2
    eigenvalues: 
  0.338  0.381  0.479  0.482  0.491
    eigenvectors:
  0.996  0.001  0.000  0.000  0.003
  0.000  0.000  0.786  0.137  0.077
  0.000  0.000  0.209  0.621  0.170
  0.001  0.999  0.000  0.000  0.000
  0.004  0.000  0.004  0.242  0.750
    occupations:
  0.339  0.001  0.001 -0.001 -0.009
  0.001  0.480  0.002 -0.001 -0.002
  0.001  0.002  0.483 -0.001 -0.003
 -0.001 -0.001 -0.001  0.381 -0.000
 -0.009 -0.002 -0.003 -0.000  0.488
atomic mag. moment =     2.783999
atom   13   Tr[ns(na)] (up, down, total) =   4.92861  2.15170  7.08031
   spin  1
    eigenvalues: 
  0.969  0.987  0.990  0.991  0.992
    eigenvectors:
  0.991  0.000  0.000  0.007  0.001
  0.007  0.000  0.000  0.993  0.000
  0.000  0.525  0.475  0.000  0.000
  0.001  0.000  0.000  0.000  0.999
  0.000  0.475  0.525  0.000  0.000
    occupations:
  0.969  0.002  0.000  0.001  0.000
  0.002  0.991 -0.000 -0.000 -0.000
  0.000 -0.000  0.989  0.000 -0.001
  0.001 -0.000  0.000  0.992  0.000
  0.000 -0.000 -0.001  0.000  0.989
   spin  2
    eigenvalues: 
  0.364  0.393  0.415  0.489  0.491
    eigenvectors:
  0.072  0.891  0.000  0.000  0.037
  0.000  0.039  0.000  0.004  0.956
  0.000  0.000  0.870  0.129  0.001
  0.928  0.070  0.000  0.000  0.002
  0.000  0.000  0.130  0.867  0.004
    occupations:
  0.395 -0.019  0.000  0.008  0.000
 -0.019  0.487 -0.000 -0.004 -0.000
  0.000 -0.000  0.424  0.000  0.025
  0.008 -0.004  0.000  0.366 -0.000
  0.000 -0.000  0.025 -0.000  0.479
atomic mag. moment =     2.776910
atom   14   Tr[ns(na)] (up, down, total) =   4.95813  2.10275  7.06088
   spin  1
    eigenvalues: 
  0.990  0.991  0.991  0.992  0.994
    eigenvectors:
  0.000  0.000  0.005  0.069  0.926
  0.000  0.000  0.910  0.090  0.000
  0.088  0.912  0.000  0.000  0.000
  0.000  0.000  0.085  0.841  0.074
  0.912  0.088  0.000  0.000  0.000
    occupations:
  0.994 -0.000  0.000  0.000 -0.000
 -0.000  0.991  0.000  0.000  0.000
  0.000  0.000  0.991 -0.000 -0.000
  0.000  0.000 -0.000  0.992 -0.000
 -0.000  0.000 -0.000 -0.000  0.990
   spin  2
    eigenvalues: 
  0.354  0.360  0.436  0.473  0.480
    eigenvectors:
  0.416  0.584  0.000  0.000  0.000
  0.000  0.000  0.000  0.000  0.999
  0.000  0.000  0.005  0.995  0.000
  0.584  0.416  0.000  0.000  0.001
  0.000  0.000  0.995  0.005  0.000
    occupations:
  0.357  0.000 -0.000  0.003 -0.000
  0.000  0.480 -0.000 -0.003  0.000
 -0.000 -0.000  0.473  0.000  0.003
  0.003 -0.003  0.000  0.356 -0.000
 -0.000  0.000  0.003 -0.000  0.436
atomic mag. moment =     2.855385
atom   15   Tr[ns(na)] (up, down, total) =   4.96348  2.07960  7.04308
   spin  1
    eigenvalues: 
  0.991  0.992  0.992  0.993  0.995
    eigenvectors:
  0.000  0.000  0.001  0.032  0.967
  0.000  0.000  0.249  0.730  0.021
  0.173  0.827  0.000  0.000  0.000
  0.000  0.000  0.751  0.237  0.012
  0.827  0.173  0.000  0.000  0.000
    occupations:
  0.995 -0.000 -0.000  0.000  0.000
 -0.000  0.993 -0.000 -0.000 -0.000
 -0.000 -0.000  0.992  0.000 -0.001
  0.000 -0.000  0.000  0.993 -0.000
  0.000 -0.000 -0.001 -0.000  0.991
   spin  2
    eigenvalues: 
  0.343  0.357  0.442  0.461  0.476
    eigenvectors:
  0.000  1.000  0.000  0.000  0.000
  0.000  0.000  0.000  0.999  0.000
  0.000  0.000  0.000  0.000  1.000
  0.999  0.000  0.000  0.000  0.000
  0.000  0.000  0.999  0.000  0.000
    occupations:
  0.357 -0.002 -0.000  0.000 -0.000
 -0.002  0.461 -0.000  0.002 -0.000
 -0.000 -0.000  0.476 -0.000 -0.001
  0.000  0.002 -0.000  0.343 -0.000
 -0.000 -0.000 -0.001 -0.000  0.442
atomic mag. moment =     2.883878
atom   16   Tr[ns(na)] (up, down, total) =   4.95600  2.08571  7.04172
   spin  1
    eigenvalues: 
  0.986  0.991  0.992  0.994  0.994
    eigenvectors:
  0.996  0.000  0.003  0.000  0.002
  0.002  0.000  0.000  0.000  0.998
  0.000  0.029  0.000  0.971  0.000
  0.003  0.000  0.997  0.000  0.000
  0.000  0.971  0.000  0.029  0.000
    occupations:
  0.986  0.000  0.000 -0.000 -0.000
  0.000  0.994 -0.000  0.000  0.000
  0.000 -0.000  0.994 -0.000  0.001
 -0.000  0.000 -0.000  0.992 -0.000
 -0.000  0.000  0.001 -0.000  0.991
   spin  2
    eigenvalues: 
  0.352  0.370  0.444  0.449  0.471
    eigenvectors:
  0.967  0.032  0.000  0.000  0.000
  0.000  0.000  0.999  0.001  0.000
  0.000  0.000  0.000  0.915  0.084
  0.032  0.967  0.000  0.000  0.000
  0.000  0.000  0.000  0.084  0.916
    occupations:
  0.353  0.002 -0.000 -0.003  0.000
  0.002  0.444  0.000  0.001 -0.000
 -0.000  0.000  0.451 -0.000  0.006
 -0.003  0.001 -0.000  0.369 -0.000
  0.000 -0.000  0.006 -0.000  0.469
atomic mag. moment =     2.870287
atom   17   Tr[ns(na)] (up, down, total) =   4.93387  1.81955  6.75341
   spin  1
    eigenvalues: 
  0.969  0.980  0.993  0.995  0.996
    eigenvectors:
  0.108  0.003  0.090  0.323  0.476
  0.050  0.323  0.332  0.281  0.015
  0.015  0.615  0.147  0.187  0.036
  0.005  0.011  0.371  0.181  0.432
  0.822  0.048  0.060  0.028  0.041
    occupations:
  0.993 -0.002 -0.000  0.001  0.008
 -0.002  0.989 -0.007  0.000  0.003
 -0.000 -0.007  0.985 -0.002  0.001
  0.001  0.000 -0.002  0.995 -0.002
  0.008  0.003  0.001 -0.002  0.973
   spin  2
    eigenvalues: 
  0.256  0.290  0.347  0.422  0.505
    eigenvectors:
  0.851  0.048  0.053  0.035  0.014
  0.064  0.403  0.209  0.067  0.257
  0.021  0.232  0.062  0.302  0.383
  0.001  0.317  0.659  0.023  0.001
  0.064  0.001  0.017  0.574  0.345
    occupations:
  0.271  0.007 -0.010 -0.007  0.043
  0.007  0.364  0.081 -0.019 -0.037
 -0.010  0.081  0.415  0.018 -0.024
 -0.007 -0.019  0.018  0.330  0.013
  0.043 -0.037 -0.024  0.013  0.439
atomic mag. moment =     3.114320
atom   18   Tr[ns(na)] (up, down, total) =   4.93376  1.82067  6.75443
   spin  1
    eigenvalues: 
  0.969  0.980  0.993  0.995  0.996
    eigenvectors:
  0.108  0.003  0.091  0.314  0.484
  0.050  0.320  0.332  0.284  0.014
  0.016  0.616  0.146  0.188  0.033
  0.005  0.011  0.370  0.187  0.427
  0.821  0.049  0.060  0.027  0.042
    occupations:
[...]
     0.0158   0.0028   0.0023   0.0020   0.0009   0.0007   0.0005   0.0002
     0.0002   0.0002   0.0001   0.0001   0.0001   0.0000   0.0000   0.0000
     0.0000   0.0000   0.0000   0.0000   0.0000   0.0000   0.0000   0.0000
     0.0000   0.0000   0.0000   0.0000   0.0000   0.0000   0.0000   0.0000
     0.0000   0.0000   0.0000   0.0000   0.0000   0.0000   0.0000   0.0000
     0.0000   0.0000   0.0000   0.0000   0.0000   0.0000   0.0000   0.0000
     0.0000   0.0000

     the Fermi energy is     5.2872 ev

!    total energy              =   -6686.60068544 Ry
     Harris-Foulkes estimate   =   -6686.60068543 Ry
     estimated scf accuracy    <          5.9E-09 Ry

     total all-electron energy =    -51287.989281 Ry

     The total energy is the sum of the following terms:

     one-electron contribution =  -26409.05720030 Ry
     hartree contribution      =   13270.77547377 Ry
     xc contribution           =    -715.32385473 Ry
     ewald contribution        =    8715.60095176 Ry
     Hubbard energy            =       0.00000000 Ry
     one-center paw contrib.   =   -1548.68623588 Ry
     smearing contrib. (-TS)   =       0.09017995 Ry

     total magnetization       =    50.05 Bohr mag/cell
     absolute magnetization    =    52.86 Bohr mag/cell

     convergence has been achieved in  29 iterations

     Forces acting on atoms (Ry/au):


     negative rho (up, down):  0.760E-04 0.121E-02
     atom    1 type  1   force =     0.00010576    0.00011833    0.00362260
     atom    2 type  1   force =     0.00010528   -0.00012047    0.00362321
     atom    3 type  1   force =    -0.00038070    0.00000321    0.00398811
     atom    4 type  1   force =    -0.00037843   -0.00000430    0.00399025
     atom    5 type  1   force =     0.00081298    0.00000201   -0.00714700
     atom    6 type  1   force =     0.00012784   -0.00000248   -0.00585238
     atom    7 type  1   force =    -0.00031388    0.00000163   -0.00661853
     atom    8 type  1   force =     0.00160923   -0.00000214   -0.01042026
     atom    9 type  1   force =     0.00304650    0.00007542    0.00291727
     atom   10 type  1   force =     0.00304812   -0.00005208    0.00291117
     atom   11 type  1   force =    -0.00383741    0.00375055    0.00448227
     atom   12 type  1   force =    -0.00383029   -0.00371823    0.00448102
     atom   13 type  1   force =    -0.00001976    0.00001374    0.00004480
     atom   14 type  1   force =     0.00000884    0.00000240    0.00001952
     atom   15 type  1   force =    -0.00001144   -0.00000910    0.00002174
     atom   16 type  1   force =    -0.00001427   -0.00000286    0.00002343
     atom   17 type  1   force =    -0.00003869   -0.00000723   -0.00001851
     atom   18 type  1   force =    -0.00000232   -0.00001972   -0.00001795
     atom   19 type  1   force =     0.00003564   -0.00001243    0.00001447
     atom   20 type  1   force =     0.00000521   -0.00002015    0.00000493
     atom   21 type  2   force =    -0.00003893    0.00002839   -0.00002760
     atom   22 type  3   force =    -0.00005300   -0.00002956   -0.00001447
     atom   23 type  3   force =     0.00001373    0.00000507   -0.00002808
     The non-local contrib.  to forces
     atom    1 type  1   force =     0.00115875    0.00040712   -0.39123676
     atom    2 type  1   force =     0.00115842   -0.00041011   -0.39123846
     atom    3 type  1   force =    -0.00156992    0.00299263   -0.39128688
     atom    4 type  1   force =    -0.00157169   -0.00299544   -0.39129112
     atom    5 type  1   force =    -0.00063998   -0.00000499   -0.03282646
     atom    6 type  1   force =     0.00099495   -0.00000043   -0.03624778
     atom    7 type  1   force =     0.00093317   -0.00000456   -0.03449094
     atom    8 type  1   force =    -0.00334963    0.00000005   -0.03945988
     atom    9 type  1   force =    -0.00513381   -0.00000930    0.00192374
     atom   10 type  1   force =    -0.00513068   -0.00001940    0.00190973
     atom   11 type  1   force =     0.00392189   -0.00445337   -0.00264801
     atom   12 type  1   force =     0.00392006    0.00442451   -0.00264968
     atom   13 type  1   force =    -0.02482577   -0.00001093    0.19137321
     atom   14 type  1   force =    -0.00918353    0.00000303    0.00875616
     atom   15 type  1   force =     0.00564986    0.00001929    0.03225942
     atom   16 type  1   force =     0.02502872    0.00000371    0.23593383
     atom   17 type  1   force =    -0.03272528   -0.03059814    0.23202732
     atom   18 type  1   force =    -0.03266560    0.03074386    0.23223588
     atom   19 type  1   force =     0.00450778    0.03453682    0.33254167
     atom   20 type  1   force =     0.00435989   -0.03437677    0.33213162
     atom   21 type  2   force =     0.60260152    0.00043674    0.22779009
     atom   22 type  3   force =    -1.10452897   -0.00065917   -1.84405672
     atom   23 type  3   force =     0.05837119   -0.00011556   -0.99622326
     The ionic contribution  to forces
     atom    1 type  1   force =     0.03840892    0.02703226 -265.93034467
     atom    2 type  1   force =     0.03820068   -0.02705374 -265.93010674
     atom    3 type  1   force =    -0.03823335    0.02996227 -265.92548763
     atom    4 type  1   force =    -0.03794013   -0.02998365 -265.92523367
     atom    5 type  1   force =     0.02262713    0.00009837 -148.06730772
     atom    6 type  1   force =    -0.00707685   -0.00030156 -147.86757173
     atom    7 type  1   force =    -0.02552266    0.00030006 -147.97415981
     atom    8 type  1   force =    -0.00036371   -0.00054053 -148.77485938
     atom    9 type  1   force =     0.65335086    0.36978553  -15.23473930
     atom   10 type  1   force =     0.65297557   -0.36759343  -15.23604549
     atom   11 type  1   force =    -0.60036656    0.59476889  -15.07241739
     atom   12 type  1   force =    -0.60010857   -0.59271177  -15.07237850
     atom   13 type  1   force =     0.83471095    0.00136024  111.87160424
     atom   14 type  1   force =    -0.10930129   -0.00093743  119.50929325
     atom   15 type  1   force =    -0.43830645   -0.00282653  119.13010427
     atom   16 type  1   force =    -0.01124275    0.00216288  108.16536916
     atom   17 type  1   force =    -0.25793792   -0.14056849  243.55002712
     atom   18 type  1   force =    -0.25111158    0.13820177  243.54348442
     atom   19 type  1   force =     0.54115096   -2.48291835  241.21697756
     atom   20 type  1   force =     0.53202118    2.47898567  241.21290650
     atom   21 type  2   force =    -3.40430004   -0.00027984   67.79794438
     atom   22 type  3   force =     2.75102456    0.00037739  113.01404808
     atom   23 type  3   force =    -0.28265895    0.00267999  107.99889304
     The local contribution  to forces
     atom    1 type  1   force =    -0.03933230   -0.02725877  266.33814724
     atom    2 type  1   force =    -0.03912395    0.02728199  266.33791099
     atom    3 type  1   force =     0.03937293   -0.03288135  266.33377874
     atom    4 type  1   force =     0.03908362    0.03290495  266.33353181
     atom    5 type  1   force =    -0.02139079   -0.00009128  148.09338181
     atom    6 type  1   force =     0.00617494    0.00029887  147.89860305
     atom    7 type  1   force =     0.02429641   -0.00029381  148.00244694
     atom    8 type  1   force =     0.00539670    0.00053736  148.80396348
     atom    9 type  1   force =    -0.64518915   -0.36957912   15.23552319
     atom   10 type  1   force =    -0.64481463    0.36743605   15.23683680
     atom   11 type  1   force =     0.59252885   -0.58643742   15.07901179
     atom   12 type  1   force =     0.59227929    0.58443800   15.07897384
     atom   13 type  1   force =    -0.80933194   -0.00133504 -112.06465796
     atom   14 type  1   force =     0.11896377    0.00093662 -119.51817228
     atom   15 type  1   force =     0.43212013    0.00279813 -119.16309168
     atom   16 type  1   force =    -0.01477155   -0.00217201 -108.41440951
     atom   17 type  1   force =     0.30055660    0.18253387 -243.79281669
     atom   18 type  1   force =     0.29369907   -0.18033726 -243.78648376
     atom   19 type  1   force =    -0.54704987    2.44844069 -241.56476744
     atom   20 type  1   force =    -0.53779500   -2.44469495 -241.56030472
     atom   21 type  2   force =     2.81276166   -0.00011983  -68.02260754
     atom   22 type  3   force =    -1.65650467    0.00024596 -111.18782274
     atom   23 type  3   force =     0.22470875   -0.00256060 -107.01353854
     The core correction contribution to forces
     atom    1 type  1   force =    -0.00013442   -0.00006198   -0.01275489
     atom    2 type  1   force =    -0.00013472    0.00006111   -0.01275447
     atom    3 type  1   force =     0.00004365   -0.00007068   -0.01282578
     atom    4 type  1   force =     0.00004396    0.00006990   -0.01282562
     atom    5 type  1   force =     0.00021388   -0.00000005   -0.00025703
     atom    6 type  1   force =     0.00003294    0.00000026   -0.00049873
     atom    7 type  1   force =    -0.00002862   -0.00000020   -0.00027750
     atom    8 type  1   force =    -0.00008219    0.00000068    0.00007012
     atom    9 type  1   force =     0.00002144   -0.00011390    0.00031029
     atom   10 type  1   force =     0.00002096    0.00011702    0.00031068
     atom   11 type  1   force =     0.00006556   -0.00012277    0.00064643
     atom   12 type  1   force =     0.00006582    0.00012595    0.00064608
     atom   13 type  1   force =    -0.00056173   -0.00000027    0.00188205
     atom   14 type  1   force =    -0.00045097   -0.00000025    0.00027682
     atom   15 type  1   force =     0.00050059   -0.00000006    0.00088398
     atom   16 type  1   force =     0.00094027    0.00000245    0.01325069
     atom   17 type  1   force =    -0.00990305   -0.01134389    0.01074786
     atom   18 type  1   force =    -0.00989560    0.01134109    0.01075029
     atom   19 type  1   force =     0.00139774   -0.00006718    0.01524336
     atom   20 type  1   force =     0.00139024    0.00006103    0.01525157
     atom   21 type  2   force =    -0.01111181   -0.00000880   -0.00315527
     atom   22 type  3   force =     0.00993329    0.00000627    0.01777366
     atom   23 type  3   force =    -0.00042430    0.00000112    0.01083869
     The Hubbard contrib.    to forces
     atom    1 type  1   force =     0.00000000    0.00000000   -0.00000000
     atom    2 type  1   force =     0.00000000   -0.00000000   -0.00000000
     atom    3 type  1   force =    -0.00000000   -0.00000000   -0.00000000
     atom    4 type  1   force =    -0.00000000    0.00000000   -0.00000000
     atom    5 type  1   force =    -0.00000000   -0.00000000    0.00000000
     atom    6 type  1   force =     0.00000000   -0.00000000    0.00000000
     atom    7 type  1   force =    -0.00000000   -0.00000000   -0.00000000
     atom    8 type  1   force =     0.00000000   -0.00000000   -0.00000000
     atom    9 type  1   force =     0.00000000    0.00000000   -0.00000000
     atom   10 type  1   force =     0.00000000   -0.00000000   -0.00000000
     atom   11 type  1   force =    -0.00000000    0.00000000   -0.00000000
     atom   12 type  1   force =    -0.00000000   -0.00000000   -0.00000000
     atom   13 type  1   force =    -0.00000000    0.00000000    0.00000000
     atom   14 type  1   force =     0.00000000    0.00000000   -0.00000000
     atom   15 type  1   force =    -0.00000000    0.00000000   -0.00000000
     atom   16 type  1   force =     0.00000000   -0.00000000   -0.00000000
     atom   17 type  1   force =     0.00000000    0.00000000    0.00000000
     atom   18 type  1   force =     0.00000000   -0.00000000    0.00000000
     atom   19 type  1   force =    -0.00000000    0.00000000    0.00000000
     atom   20 type  1   force =    -0.00000000   -0.00000000    0.00000000
     atom   21 type  2   force =     0.00000000    0.00000000    0.00000000
     atom   22 type  3   force =    -0.00000000   -0.00000000    0.00000000
     atom   23 type  3   force =    -0.00000000   -0.00000000    0.00000000
     The SCF correction term to forces
     atom    1 type  1   force =     0.00000000    0.00000000    0.00000000
     atom    2 type  1   force =     0.00000000    0.00000000    0.00000000
     atom    3 type  1   force =     0.00000000    0.00000000    0.00000000
     atom    4 type  1   force =     0.00000000    0.00000000    0.00000000
     atom    5 type  1   force =     0.00000000    0.00000000    0.00000000
     atom    6 type  1   force =     0.00000000    0.00000000    0.00000000
     atom    7 type  1   force =     0.00000000    0.00000000    0.00000000
     atom    8 type  1   force =     0.00000000    0.00000000    0.00000000
     atom    9 type  1   force =     0.00000000    0.00000000    0.00000000
     atom   10 type  1   force =     0.00000000    0.00000000    0.00000000
     atom   11 type  1   force =     0.00000000    0.00000000    0.00000000
     atom   12 type  1   force =     0.00000000    0.00000000    0.00000000
     atom   13 type  1   force =    -0.00001653   -0.00000035   -0.00012342
     atom   14 type  1   force =    -0.00002441    0.00000032   -0.00010113
     atom   15 type  1   force =     0.00001916   -0.00000004   -0.00010093
     atom   16 type  1   force =     0.00002578    0.00000001   -0.00008743
     atom   17 type  1   force =    -0.00003432   -0.00003069    0.00002918
     atom   18 type  1   force =    -0.00003388    0.00003074    0.00002854
     atom   19 type  1   force =     0.00002376   -0.00000450    0.00005264
     atom   20 type  1   force =     0.00002363    0.00000477    0.00005328
     atom   21 type  2   force =     0.00000448    0.00000003    0.00003405
     atom   22 type  3   force =     0.00001752   -0.00000010    0.00007656
     atom   23 type  3   force =     0.00001178    0.00000003    0.00003531

     Total force =     0.000131     Total SCF correction =     0.000258
     SCF correction compared to forces is large: reduce conv_thr to get better values


     entering subroutine stress ...


     negative rho (up, down):  0.760E-04 0.121E-02
          total   stress  (Ry/bohr**3)                   (kbar)     P=  -15.79
  -0.00014983   0.00000003  -0.00000091        -22.04      0.01     -0.13
   0.00000003  -0.00017287  -0.00000008          0.01    -25.43     -0.01
  -0.00000091  -0.00000008   0.00000066         -0.13     -0.01      0.10

     kinetic stress (kbar)  32827.29     -0.03    -14.68
                               -0.03  32838.59     -0.06
                              -14.68     -0.06  32763.90

     local   stress (kbar)-880945.09     -1.05    -52.73
                               -1.05-881511.25      0.98
                              -52.73      0.98 931529.81

     nonloc. stress (kbar) -24605.79     -0.01     -8.19
                               -0.01 -24605.03      0.03
                               -8.19      0.03 -24538.32

     hartree stress (kbar) 465408.63      0.37    -17.82
                                0.37 465667.48     -0.39
                              -17.82     -0.39-430289.62

     exc-cor stress (kbar)  -1185.76      0.00      1.12
                                0.00  -1186.58     -0.00
                                1.12     -0.00  -1192.84

     corecor stress (kbar)  -6639.01      0.00     -0.16
                                0.00  -6638.41     -0.00
                               -0.16     -0.00  -6637.64

     ewald   stress (kbar) 415117.70      0.72     92.33
                                0.72 415409.76     -0.58
                               92.33     -0.58-501635.21

     hubbard stress (kbar)     -0.00      0.00     -0.00
                                0.00     -0.00      0.00
                               -0.00      0.00     -0.00

     london  stress (kbar)      0.00      0.00      0.00
                                0.00      0.00      0.00
                                0.00      0.00      0.00

     dft-nl  stress (kbar)      0.00      0.00      0.00
                                0.00      0.00      0.00
                                0.00      0.00      0.00



     Writing output data file Fe_100_2x2_CO_hollow_O_SB.save
 
     init_run     :     42.45s CPU     46.44s WALL (       1 calls)
     electrons    :   2309.19s CPU   2404.85s WALL (       1 calls)
     forces       :     80.23s CPU     81.46s WALL (       1 calls)
     stress       :    387.68s CPU    398.11s WALL (       1 calls)

     Called by init_run:
     wfcinit      :     24.29s CPU     28.02s WALL (       1 calls)
     potinit      :      2.56s CPU      2.61s WALL (       1 calls)

     Called by electrons:
     c_bands      :   1174.89s CPU   1230.51s WALL (      29 calls)
     sum_band     :    607.45s CPU    631.73s WALL (      29 calls)
     v_of_rho     :     21.94s CPU     22.40s WALL (      30 calls)
     v_h          :      1.14s CPU      1.13s WALL (      30 calls)
     v_xc         :     22.21s CPU     22.70s WALL (      32 calls)
     newd         :    351.53s CPU    352.59s WALL (      30 calls)
     mix_rho      :    135.13s CPU    135.53s WALL (      29 calls)

     Called by c_bands:
     init_us_2    :      7.32s CPU      7.40s WALL (     360 calls)
     cegterg      :   1102.33s CPU   1125.25s WALL (     145 calls)

     Called by sum_band:
     sum_band:bec :      0.35s CPU      0.31s WALL (     145 calls)
     addusdens    :    395.60s CPU    396.44s WALL (      29 calls)

     Called by *egterg:
     h_psi        :    833.98s CPU    836.05s WALL (     554 calls)
     s_psi        :     61.61s CPU     61.73s WALL (     609 calls)
     g_psi        :      1.48s CPU      1.49s WALL (     404 calls)
     cdiaghg      :     67.34s CPU     67.63s WALL (     549 calls)
     cegterg:over :     62.11s CPU     62.21s WALL (     404 calls)
     cegterg:upda :     46.21s CPU     46.52s WALL (     404 calls)
     cegterg:last :     28.21s CPU     28.26s WALL (     145 calls)
     cdiaghg:chol :      3.30s CPU      3.27s WALL (     549 calls)
     cdiaghg:inve :      1.09s CPU      1.12s WALL (     549 calls)
     cdiaghg:para :     13.35s CPU     13.40s WALL (    1098 calls)

     Called by h_psi:
     h_psi:vloc   :    566.56s CPU    568.32s WALL (     554 calls)
     h_psi:vnl    :    109.16s CPU    109.26s WALL (     554 calls)
     add_vuspsi   :     53.07s CPU     53.10s WALL (     554 calls)
     vhpsi        :    155.35s CPU    155.55s WALL (     554 calls)

     General routines
     calbec       :    171.33s CPU    171.79s WALL (    2593 calls)
     fft          :     24.85s CPU     25.10s WALL (     964 calls)
     ffts         :     61.98s CPU     62.24s WALL (   12222 calls)
     fftw         :    562.68s CPU    563.73s WALL (   78543 calls)
     interpolate  :      4.02s CPU      4.09s WALL (     118 calls)
     davcio       :     13.97s CPU     82.31s WALL (    1055 calls)
 
     Parallel routines
     fft_scatter  :    288.97s CPU    290.37s WALL (   91729 calls)
     ALLTOALL     :     19.32s CPU     19.23s WALL (   78395 calls)
     Hubbard U routines
     new_ns       :     20.48s CPU     36.80s WALL (      29 calls)
     vhpsi        :    155.35s CPU    155.55s WALL (     554 calls)
     force_hub    :     21.13s CPU     22.04s WALL (       1 calls)
     stres_hub    :    207.00s CPU    217.12s WALL (       1 calls)
 
     PAW routines
     PAW_pot      :      7.46s CPU      7.52s WALL (      30 calls)
     PAW_ddot     :      6.37s CPU      6.40s WALL (    1021 calls)
 
     PWSCF        : 47m15.55s CPU    49m19.41s WALL

 
   This run was terminated on:  19: 4:57   3Aug2015            

=------------------------------------------------------------------------------=
   JOB DONE.
=------------------------------------------------------------------------------=
Application 16675033 resources: utime ~137276s, stime ~4549s, Rss ~666008, inblocks ~6400451861, outblocks ~1024549662
