
     Program PWSCF v.5.0.2 (svn rev. 9656) starts on  4Aug2015 at 11:11:44 

     This program is part of the open-source Quantum ESPRESSO suite
     for quantum simulation of materials; please cite
         "P. Giannozzi et al., J. Phys.:Condens. Matter 21 395502 (2009);
          URL http://www.quantum-espresso.org", 
     in publications or presentations arising from this work. More details at
     http://www.quantum-espresso.org/quote.php

     Parallel version (MPI & OpenMP), running on      48 processor cores
     Number of MPI processes:                48
     Threads/MPI process:                     1
     K-points division:     npool     =       4
     R & G space division:  proc/nbgrp/npool/nimage =      12
     wavefunctions fft division:  fft/group =       2

     Current dimensions of program PWSCF are:
     Max number of different atomic species (ntypx) = 10
     Max number of k-points (npk) =  40000
     Max angular momentum in pseudopotentials (lmaxx) =  3
     Reading input from Fe_110_2x2_SB_HO_LB_H_scf.in
Warning: card  &IONS ignored
Warning: card  / ignored
Warning: card  &CELL ignored
Warning: card    PRESS=0.0 ignored
Warning: card    PRESS_CONV_THR=0.1 ignored
Warning: card  / ignored

     IMPORTANT: XC functional enforced from input :
     Exchange-correlation      = PBE ( 1 4 3 4 0)
     EXX-fraction              =        0.00
     Any further DFT definition will be discarded
     Please, verify this is what you really want

               file Fe.pbe-spn-kjpaw_psl.0.2.1.UPF: wavefunction(s)  3D renormalized
               file O.pbe-n-kjpaw_psl.0.1.UPF: wavefunction(s)  2P renormalized
               file H.pbe-kjpaw_psl.0.1.upf: wavefunction(s)  1S renormalized

     Subspace diagonalization in iterative solution of the eigenvalue problem:
     scalapack distributed-memory algorithm (size of sub-group:  2*  2 procs)


   Task Groups are in USE
   groups and procs/group :     2    6
 
     Parallelization info
     --------------------
     sticks:   dense  smooth     PW     G-vecs:    dense   smooth      PW
     Min         429     203     57                99954    32713    4877
     Max         431     204     58                99959    32748    4892
     Sum        5161    2447    693              1199489   392779   58615
 


     bravais-lattice index     =            0
     lattice parameter (alat)  =       1.8897  a.u.
     unit-cell volume          =    3139.3349 (a.u.)^3
     number of atoms/cell      =           23
     number of atomic types    =            3
     number of electrons       =       328.00
     number of Kohn-Sham states=          202
     kinetic-energy cutoff     =      95.0000  Ry
     charge density cutoff     =     800.0000  Ry
     convergence threshold     =      1.0E-08
     mixing beta               =       0.5000
     number of iterations used =            8  local-TF  mixing
     Exchange-correlation      = PBE ( 1 4 3 4 0)
     EXX-fraction              =        0.00

     celldm(1)=   1.889727  celldm(2)=   0.000000  celldm(3)=   0.000000
     celldm(4)=   0.000000  celldm(5)=   0.000000  celldm(6)=   0.000000

     crystal axes: (cart. coord. in units of alat)
               a(1) = (   4.906044   0.000000   0.000000 )  
               a(2) = (  -1.635348   4.625463   0.000000 )  
               a(3) = (   0.000000   0.000000  20.500000 )  

     reciprocal axes: (cart. coord. in units 2 pi/alat)
               b(1) = (  0.203830  0.072065  0.000000 )  
               b(2) = (  0.000000  0.216195  0.000000 )  
               b(3) = (  0.000000  0.000000  0.048780 )  


     PseudoPot. # 1 for Fe read from file:
     /work/e05/e05/ablar/QE_PSEUDO/Fe.pbe-spn-kjpaw_psl.0.2.1.UPF
     MD5 check sum: a0a08122d52b112de96d1da1d7dd020f
     Pseudo is Projector augmented-wave + core cor, Zval = 16.0
     Generated using "atomic" code by A. Dal Corso  v.5.0.2 svn rev. 9415
     Shape of augmentation charge: PSQ
     Using radial grid of 1191 points,  6 beta functions with: 
                l(1) =   0
                l(2) =   0
                l(3) =   1
                l(4) =   1
                l(5) =   2
                l(6) =   2
     Q(r) pseudized with 0 coefficients 


     PseudoPot. # 2 for  O read from file:
     /work/e05/e05/ablar/QE_PSEUDO/O.pbe-n-kjpaw_psl.0.1.UPF
     MD5 check sum: 1d826bf4880e2aee2c3af49d0719521d
     Pseudo is Projector augmented-wave + core cor, Zval =  6.0
     Generated using "atomic" code by A. Dal Corso  v.5.0.2 svn rev. 9415
     Shape of augmentation charge: BESSEL
     Using radial grid of 1095 points,  4 beta functions with: 
                l(1) =   0
                l(2) =   0
                l(3) =   1
                l(4) =   1
     Q(r) pseudized with 0 coefficients 


     PseudoPot. # 3 for  H read from file:
     /work/e05/e05/ablar/QE_PSEUDO/H.pbe-kjpaw_psl.0.1.upf
     MD5 check sum: 94e484f906d9e9773b2f6e52662335b2
     Pseudo is Projector augmented-wave, Zval =  1.0
     Generated using "atomic" code by A. Dal Corso  v.5.0.99 svn rev. 10869
     Shape of augmentation charge: PSQ
     Using radial grid of  929 points,  2 beta functions with: 
                l(1) =   0
                l(2) =   0
     Q(r) pseudized with 0 coefficients 


     atomic species   valence    mass     pseudopotential
        Fe            16.00    55.85000     Fe( 1.00)
        O              6.00    16.00000      O( 1.00)
        H              1.00     1.00000      H( 1.00)

     Starting magnetic structure 
     atomic species   magnetization
        Fe           0.600
        O            0.000
        H            0.000


     Simplified LDA+U calculation (l_max = 2) with parameters (eV):
     atomic species    L          U    alpha       J0     beta
        Fe             2     0.0000   0.0000   0.0000   0.0000



     No symmetry found


                                    s                        frac. trans.

      isym =  1     identity                                     

 cryst.   s( 1) = (     1          0          0      )
                  (     0          1          0      )
                  (     0          0          1      )

 cart.    s( 1) = (  1.0000000  0.0000000  0.0000000 )
                  (  0.0000000  1.0000000  0.0000000 )
                  (  0.0000000  0.0000000  1.0000000 )


     point group C_1 (1)    
     there are  1 classes
     the character table:

       E    
A      1.00

     the symmetry operations in each class:
     E        1

   Cartesian axes

     site n.     atom                  positions (alat units)
         1           Fe  tau(   1) = (   0.0000000   0.0000000  -4.0057584  )
         2           Fe  tau(   2) = (  -0.8176697   2.3127291  -4.0057584  )
         3           Fe  tau(   3) = (   2.4530190   0.0000000  -4.0057584  )
         4           Fe  tau(   4) = (  -3.2706887   2.3127291  -4.0057584  )
         5           Fe  tau(   5) = (   0.8176697   1.1563595  -2.0028892  )
         6           Fe  tau(   6) = (  -0.8176697  -1.1563595  -2.0028892  )
         7           Fe  tau(   7) = (   1.6353494  -1.1563595  -2.0028892  )
         8           Fe  tau(   8) = (  -1.6353494   1.1563595  -2.0028892  )
         9           Fe  tau(   9) = (   0.0000000   0.0000000   0.0000000  )
        10           Fe  tau(  10) = (  -0.8176697   2.3127291   0.0000000  )
        11           Fe  tau(  11) = (   2.4530190   0.0000000   0.0000000  )
        12           Fe  tau(  12) = (  -3.2706887   2.3127291   0.0000000  )
        13           Fe  tau(  13) = (   0.8162527   1.1635926   1.9792446  )
        14           Fe  tau(  14) = (  -0.8252753  -1.1579473   1.9790476  )
        15           Fe  tau(  15) = (   1.6364222  -1.1577179   1.9994291  )
        16           Fe  tau(  16) = (  -1.6427801   1.1613618   2.0028437  )
        17           Fe  tau(  17) = (  -0.0247366   0.0167730   3.9315658  )
        18           Fe  tau(  18) = (  -0.8005517   2.3788086   4.0330839  )
        19           Fe  tau(  19) = (   2.3958466  -0.0390779   4.0332494  )
        20           Fe  tau(  20) = (  -3.2804568   2.3190236   4.0127752  )
        21           O   tau(  21) = (  -1.9247787   1.3607404   5.3411664  )
        22           H   tau(  22) = (  -1.9396934   1.3732394   6.3112818  )
        23           H   tau(  23) = (   0.4359849   3.1601816   5.0281521  )

   Crystallographic axes

     site n.     atom                  positions (cryst. coord.)
         1           Fe  tau(   1) = (  0.0000000  0.0000000 -0.1954028  )
         2           Fe  tau(   2) = (  0.0000007  0.4999995 -0.1954028  )
         3           Fe  tau(   3) = (  0.4999994  0.0000000 -0.1954028  )
         4           Fe  tau(   4) = ( -0.4999986  0.4999995 -0.1954028  )
         5           Fe  tau(   5) = (  0.2499987  0.2499987 -0.0977019  )
         6           Fe  tau(   6) = ( -0.2499987 -0.2499987 -0.0977019  )
         7           Fe  tau(   7) = (  0.2500007 -0.2499987 -0.0977019  )
         8           Fe  tau(   8) = ( -0.2500007  0.2499987 -0.0977019  )
         9           Fe  tau(   9) = (  0.0000000  0.0000000  0.0000000  )
        10           Fe  tau(  10) = (  0.0000007  0.4999995  0.0000000  )
        11           Fe  tau(  11) = (  0.4999994  0.0000000  0.0000000  )
        12           Fe  tau(  12) = ( -0.4999986  0.4999995  0.0000000  )
        13           Fe  tau(  13) = (  0.2502311  0.2515624  0.0965485  )
        14           Fe  tau(  14) = ( -0.2516633 -0.2503419  0.0965389  )
        15           Fe  tau(  15) = (  0.2501215 -0.2502923  0.0975331  )
        16           Fe  tau(  16) = ( -0.2511548  0.2510801  0.0976997  )
        17           Fe  tau(  17) = ( -0.0038333  0.0036262  0.1917837  )
        18           Fe  tau(  18) = (  0.0082519  0.5142855  0.1967358  )
        19           Fe  tau(  19) = (  0.4855298 -0.0084484  0.1967439  )
        20           Fe  tau(  20) = ( -0.5015361  0.5013603  0.1957451  )
        21           O   tau(  21) = ( -0.2942665  0.2941847  0.2605447  )
        22           H   tau(  22) = ( -0.2964058  0.2968869  0.3078674  )
        23           H   tau(  23) = (  0.3166049  0.6832141  0.2452757  )

     number of k points=    20  Marzari-Vanderbilt smearing, width (Ry)=  0.0400
                       cart. coord. in units 2pi/alat
        k(    1) = (   0.0000000   0.0000000   0.0000000), wk =   0.0625000
        k(    2) = (   0.0000000   0.0540486   0.0000000), wk =   0.1250000
        k(    3) = (   0.0000000  -0.1080973   0.0000000), wk =   0.0625000
        k(    4) = (   0.0509576   0.0180162   0.0000000), wk =   0.1250000
        k(    5) = (   0.0509576   0.0720649   0.0000000), wk =   0.1250000
        k(    6) = (   0.0509576  -0.0900811   0.0000000), wk =   0.1250000
        k(    7) = (   0.0509576  -0.0360324   0.0000000), wk =   0.1250000
        k(    8) = (  -0.1019151  -0.0360324   0.0000000), wk =   0.0625000
        k(    9) = (  -0.1019151   0.0180162   0.0000000), wk =   0.1250000
        k(   10) = (  -0.1019151  -0.1441297   0.0000000), wk =   0.0625000
        k(   11) = (   0.0000000   0.0000000   0.0000000), wk =   0.0625000
        k(   12) = (   0.0000000   0.0540486   0.0000000), wk =   0.1250000
        k(   13) = (   0.0000000  -0.1080973   0.0000000), wk =   0.0625000
        k(   14) = (   0.0509576   0.0180162   0.0000000), wk =   0.1250000
        k(   15) = (   0.0509576   0.0720649   0.0000000), wk =   0.1250000
        k(   16) = (   0.0509576  -0.0900811   0.0000000), wk =   0.1250000
        k(   17) = (   0.0509576  -0.0360324   0.0000000), wk =   0.1250000
        k(   18) = (  -0.1019151  -0.0360324   0.0000000), wk =   0.0625000
        k(   19) = (  -0.1019151   0.0180162   0.0000000), wk =   0.1250000
        k(   20) = (  -0.1019151  -0.1441297   0.0000000), wk =   0.0625000

                       cryst. coord.
        k(    1) = (   0.0000000   0.0000000   0.0000000), wk =   0.0625000
        k(    2) = (   0.0000000   0.2500000   0.0000000), wk =   0.1250000
        k(    3) = (   0.0000000  -0.5000000   0.0000000), wk =   0.0625000
        k(    4) = (   0.2500000   0.0000000   0.0000000), wk =   0.1250000
        k(    5) = (   0.2500000   0.2500000   0.0000000), wk =   0.1250000
        k(    6) = (   0.2500000  -0.5000000   0.0000000), wk =   0.1250000
        k(    7) = (   0.2500000  -0.2500000   0.0000000), wk =   0.1250000
        k(    8) = (  -0.5000000  -0.0000000   0.0000000), wk =   0.0625000
        k(    9) = (  -0.5000000   0.2500000   0.0000000), wk =   0.1250000
        k(   10) = (  -0.5000000  -0.5000000   0.0000000), wk =   0.0625000
        k(   11) = (   0.0000000   0.0000000   0.0000000), wk =   0.0625000
        k(   12) = (   0.0000000   0.2500000   0.0000000), wk =   0.1250000
        k(   13) = (   0.0000000  -0.5000000   0.0000000), wk =   0.0625000
        k(   14) = (   0.2500000   0.0000000   0.0000000), wk =   0.1250000
        k(   15) = (   0.2500000   0.2500000   0.0000000), wk =   0.1250000
        k(   16) = (   0.2500000  -0.5000000   0.0000000), wk =   0.1250000
        k(   17) = (   0.2500000  -0.2500000   0.0000000), wk =   0.1250000
        k(   18) = (  -0.5000000  -0.0000000   0.0000000), wk =   0.0625000
        k(   19) = (  -0.5000000   0.2500000   0.0000000), wk =   0.1250000
        k(   20) = (  -0.5000000  -0.5000000   0.0000000), wk =   0.0625000

     Dense  grid:  1199489 G-vectors     FFT dimensions: (  90,  90, 360)

     Smooth grid:   392779 G-vectors     FFT dimensions: (  60,  60, 243)

     Largest allocated arrays     est. size (Mb)     dimensions
        Kohn-Sham Wavefunctions        13.04 Mb     (   4230,  202)
        Atomic wavefunctions           17.17 Mb     (   4230,  266)
        NL pseudopotentials            24.01 Mb     (   4230,  372)
        Each V/rho on FFT grid          7.42 Mb     ( 243000,   2)
        Each G-vector array             0.76 Mb     (  99959)
        G-vector shells                 0.31 Mb     (  40422)
     Largest temporary arrays     est. size (Mb)     dimensions
        Auxiliary wavefunctions        52.15 Mb     (   4230,  808)
        Each subspace H/S matrix        2.49 Mb     ( 404, 404)
        Each <psi_i|beta_j> matrix      1.15 Mb     (    372,  202)
        Arrays for rho mixing          29.66 Mb     ( 243000,   8)

     Check: negative/imaginary core charge=   -0.000012    0.000000

     Initial potential from superposition of free atoms

     starting charge  327.99121, renormalised to  328.00000

     negative rho (up, down):  0.210E-04 0.517E-05
 --- in v_hubbard ---
Hubbard energy    0.0000
 -------
     Number of +U iterations with fixed ns =  0
     Starting occupations:
 --- enter write_ns ---
 LDA+U parameters:
U( 1)     =  0.00000000
alpha( 1) =  0.00000000
atom    1   Tr[ns(na)] (up, down, total) =   5.00000  1.00000  6.00000
   spin  1
    eigenvalues: 
  1.000  1.000  1.000  1.000  1.000
    eigenvectors:
  1.000  0.000  0.000  0.000  0.000
  0.000  1.000  0.000  0.000  0.000
  0.000  0.000  1.000  0.000  0.000
  0.000  0.000  0.000  1.000  0.000
  0.000  0.000  0.000  0.000  1.000
    occupations:
  1.000  0.000  0.000  0.000  0.000
  0.000  1.000  0.000  0.000  0.000
  0.000  0.000  1.000  0.000  0.000
  0.000  0.000  0.000  1.000  0.000
  0.000  0.000  0.000  0.000  1.000
   spin  2
    eigenvalues: 
  0.200  0.200  0.200  0.200  0.200
    eigenvectors:
  1.000  0.000  0.000  0.000  0.000
  0.000  1.000  0.000  0.000  0.000
  0.000  0.000  1.000  0.000  0.000
  0.000  0.000  0.000  1.000  0.000
  0.000  0.000  0.000  0.000  1.000
    occupations:
  0.200  0.000  0.000  0.000  0.000
  0.000  0.200  0.000  0.000  0.000
  0.000  0.000  0.200  0.000  0.000
  0.000  0.000  0.000  0.200  0.000
  0.000  0.000  0.000  0.000  0.200
atomic mag. moment =     4.000000
atom    2   Tr[ns(na)] (up, down, total) =   5.00000  1.00000  6.00000
   spin  1
    eigenvalues: 
  1.000  1.000  1.000  1.000  1.000
    eigenvectors:
  1.000  0.000  0.000  0.000  0.000
  0.000  1.000  0.000  0.000  0.000
  0.000  0.000  1.000  0.000  0.000
  0.000  0.000  0.000  1.000  0.000
  0.000  0.000  0.000  0.000  1.000
    occupations:
  1.000  0.000  0.000  0.000  0.000
  0.000  1.000  0.000  0.000  0.000
  0.000  0.000  1.000  0.000  0.000
  0.000  0.000  0.000  1.000  0.000
  0.000  0.000  0.000  0.000  1.000
   spin  2
    eigenvalues: 
  0.200  0.200  0.200  0.200  0.200
    eigenvectors:
  1.000  0.000  0.000  0.000  0.000
  0.000  1.000  0.000  0.000  0.000
  0.000  0.000  1.000  0.000  0.000
  0.000  0.000  0.000  1.000  0.000
  0.000  0.000  0.000  0.000  1.000
    occupations:
  0.200  0.000  0.000  0.000  0.000
  0.000  0.200  0.000  0.000  0.000
  0.000  0.000  0.200  0.000  0.000
  0.000  0.000  0.000  0.200  0.000
  0.000  0.000  0.000  0.000  0.200
atomic mag. moment =     4.000000
atom    3   Tr[ns(na)] (up, down, total) =   5.00000  1.00000  6.00000
   spin  1
    eigenvalues: 
  1.000  1.000  1.000  1.000  1.000
    eigenvectors:
  1.000  0.000  0.000  0.000  0.000
  0.000  1.000  0.000  0.000  0.000
  0.000  0.000  1.000  0.000  0.000
  0.000  0.000  0.000  1.000  0.000
  0.000  0.000  0.000  0.000  1.000
    occupations:
  1.000  0.000  0.000  0.000  0.000
  0.000  1.000  0.000  0.000  0.000
  0.000  0.000  1.000  0.000  0.000
  0.000  0.000  0.000  1.000  0.000
  0.000  0.000  0.000  0.000  1.000
   spin  2
    eigenvalues: 
  0.200  0.200  0.200  0.200  0.200
    eigenvectors:
  1.000  0.000  0.000  0.000  0.000
  0.000  1.000  0.000  0.000  0.000
  0.000  0.000  1.000  0.000  0.000
  0.000  0.000  0.000  1.000  0.000
  0.000  0.000  0.000  0.000  1.000
    occupations:
  0.200  0.000  0.000  0.000  0.000
  0.000  0.200  0.000  0.000  0.000
  0.000  0.000  0.200  0.000  0.000
  0.000  0.000  0.000  0.200  0.000
  0.000  0.000  0.000  0.000  0.200
atomic mag. moment =     4.000000
atom    4   Tr[ns(na)] (up, down, total) =   5.00000  1.00000  6.00000
   spin  1
    eigenvalues: 
  1.000  1.000  1.000  1.000  1.000
    eigenvectors:
  1.000  0.000  0.000  0.000  0.000
  0.000  1.000  0.000  0.000  0.000
  0.000  0.000  1.000  0.000  0.000
  0.000  0.000  0.000  1.000  0.000
  0.000  0.000  0.000  0.000  1.000
    occupations:
  1.000  0.000  0.000  0.000  0.000
  0.000  1.000  0.000  0.000  0.000
  0.000  0.000  1.000  0.000  0.000
  0.000  0.000  0.000  1.000  0.000
  0.000  0.000  0.000  0.000  1.000
   spin  2
    eigenvalues: 
  0.200  0.200  0.200  0.200  0.200
    eigenvectors:
  1.000  0.000  0.000  0.000  0.000
  0.000  1.000  0.000  0.000  0.000
  0.000  0.000  1.000  0.000  0.000
  0.000  0.000  0.000  1.000  0.000
  0.000  0.000  0.000  0.000  1.000
    occupations:
  0.200  0.000  0.000  0.000  0.000
  0.000  0.200  0.000  0.000  0.000
  0.000  0.000  0.200  0.000  0.000
  0.000  0.000  0.000  0.200  0.000
  0.000  0.000  0.000  0.000  0.200
atomic mag. moment =     4.000000
atom    5   Tr[ns(na)] (up, down, total) =   5.00000  1.00000  6.00000
   spin  1
    eigenvalues: 
  1.000  1.000  1.000  1.000  1.000
    eigenvectors:
  1.000  0.000  0.000  0.000  0.000
  0.000  1.000  0.000  0.000  0.000
  0.000  0.000  1.000  0.000  0.000
  0.000  0.000  0.000  1.000  0.000
  0.000  0.000  0.000  0.000  1.000
    occupations:
  1.000  0.000  0.000  0.000  0.000
  0.000  1.000  0.000  0.000  0.000
  0.000  0.000  1.000  0.000  0.000
  0.000  0.000  0.000  1.000  0.000
  0.000  0.000  0.000  0.000  1.000
   spin  2
    eigenvalues: 
  0.200  0.200  0.200  0.200  0.200
    eigenvectors:
  1.000  0.000  0.000  0.000  0.000
  0.000  1.000  0.000  0.000  0.000
  0.000  0.000  1.000  0.000  0.000
  0.000  0.000  0.000  1.000  0.000
  0.000  0.000  0.000  0.000  1.000
    occupations:
  0.200  0.000  0.000  0.000  0.000
  0.000  0.200  0.000  0.000  0.000
  0.000  0.000  0.200  0.000  0.000
  0.000  0.000  0.000  0.200  0.000
  0.000  0.000  0.000  0.000  0.200
atomic mag. moment =     4.000000
atom    6   Tr[ns(na)] (up, down, total) =   5.00000  1.00000  6.00000
   spin  1
    eigenvalues: 
  1.000  1.000  1.000  1.000  1.000
    eigenvectors:
  1.000  0.000  0.000  0.000  0.000
  0.000  1.000  0.000  0.000  0.000
  0.000  0.000  1.000  0.000  0.000
  0.000  0.000  0.000  1.000  0.000
  0.000  0.000  0.000  0.000  1.000
    occupations:
  1.000  0.000  0.000  0.000  0.000
  0.000  1.000  0.000  0.000  0.000
  0.000  0.000  1.000  0.000  0.000
  0.000  0.000  0.000  1.000  0.000
  0.000  0.000  0.000  0.000  1.000
   spin  2
    eigenvalues: 
  0.200  0.200  0.200  0.200  0.200
    eigenvectors:
  1.000  0.000  0.000  0.000  0.000
  0.000  1.000  0.000  0.000  0.000
  0.000  0.000  1.000  0.000  0.000
  0.000  0.000  0.000  1.000  0.000
  0.000  0.000  0.000  0.000  1.000
    occupations:
  0.200  0.000  0.000  0.000  0.000
  0.000  0.200  0.000  0.000  0.000
  0.000  0.000  0.200  0.000  0.000
  0.000  0.000  0.000  0.200  0.000
  0.000  0.000  0.000  0.000  0.200
atomic mag. moment =     4.000000
atom    7   Tr[ns(na)] (up, down, total) =   5.00000  1.00000  6.00000
   spin  1
    eigenvalues: 
  1.000  1.000  1.000  1.000  1.000
    eigenvectors:
  1.000  0.000  0.000  0.000  0.000
  0.000  1.000  0.000  0.000  0.000
  0.000  0.000  1.000  0.000  0.000
  0.000  0.000  0.000  1.000  0.000
  0.000  0.000  0.000  0.000  1.000
    occupations:
  1.000  0.000  0.000  0.000  0.000
  0.000  1.000  0.000  0.000  0.000
  0.000  0.000  1.000  0.000  0.000
  0.000  0.000  0.000  1.000  0.000
  0.000  0.000  0.000  0.000  1.000
   spin  2
    eigenvalues: 
  0.200  0.200  0.200  0.200  0.200
    eigenvectors:
  1.000  0.000  0.000  0.000  0.000
  0.000  1.000  0.000  0.000  0.000
  0.000  0.000  1.000  0.000  0.000
  0.000  0.000  0.000  1.000  0.000
  0.000  0.000  0.000  0.000  1.000
    occupations:
  0.200  0.000  0.000  0.000  0.000
  0.000  0.200  0.000  0.000  0.000
  0.000  0.000  0.200  0.000  0.000
  0.000  0.000  0.000  0.200  0.000
  0.000  0.000  0.000  0.000  0.200
atomic mag. moment =     4.000000
atom    8   Tr[ns(na)] (up, down, total) =   5.00000  1.00000  6.00000
   spin  1
    eigenvalues: 
  1.000  1.000  1.000  1.000  1.000
    eigenvectors:
  1.000  0.000  0.000  0.000  0.000
  0.000  1.000  0.000  0.000  0.000
  0.000  0.000  1.000  0.000  0.000
  0.000  0.000  0.000  1.000  0.000
  0.000  0.000  0.000  0.000  1.000
    occupations:
  1.000  0.000  0.000  0.000  0.000
  0.000  1.000  0.000  0.000  0.000
  0.000  0.000  1.000  0.000  0.000
  0.000  0.000  0.000  1.000  0.000
  0.000  0.000  0.000  0.000  1.000
   spin  2
    eigenvalues: 
  0.200  0.200  0.200  0.200  0.200
    eigenvectors:
  1.000  0.000  0.000  0.000  0.000
  0.000  1.000  0.000  0.000  0.000
  0.000  0.000  1.000  0.000  0.000
  0.000  0.000  0.000  1.000  0.000
  0.000  0.000  0.000  0.000  1.000
    occupations:
  0.200  0.000  0.000  0.000  0.000
  0.000  0.200  0.000  0.000  0.000
  0.000  0.000  0.200  0.000  0.000
  0.000  0.000  0.000  0.200  0.000
  0.000  0.000  0.000  0.000  0.200
atomic mag. moment =     4.000000
atom    9   Tr[ns(na)] (up, down, total) =   5.00000  1.00000  6.00000
   spin  1
    eigenvalues: 
  1.000  1.000  1.000  1.000  1.000
    eigenvectors:
  1.000  0.000  0.000  0.000  0.000
  0.000  1.000  0.000  0.000  0.000
  0.000  0.000  1.000  0.000  0.000
  0.000  0.000  0.000  1.000  0.000
  0.000  0.000  0.000  0.000  1.000
    occupations:
  1.000  0.000  0.000  0.000  0.000
  0.000  1.000  0.000  0.000  0.000
  0.000  0.000  1.000  0.000  0.000
  0.000  0.000  0.000  1.000  0.000
  0.000  0.000  0.000  0.000  1.000
   spin  2
    eigenvalues: 
  0.200  0.200  0.200  0.200  0.200
    eigenvectors:
  1.000  0.000  0.000  0.000  0.000
  0.000  1.000  0.000  0.000  0.000
  0.000  0.000  1.000  0.000  0.000
  0.000  0.000  0.000  1.000  0.000
  0.000  0.000  0.000  0.000  1.000
    occupations:
  0.200  0.000  0.000  0.000  0.000
  0.000  0.200  0.000  0.000  0.000
  0.000  0.000  0.200  0.000  0.000
  0.000  0.000  0.000  0.200  0.000
  0.000  0.000  0.000  0.000  0.200
atomic mag. moment =     4.000000
atom   10   Tr[ns(na)] (up, down, total) =   5.00000  1.00000  6.00000
   spin  1
    eigenvalues: 
  1.000  1.000  1.000  1.000  1.000
    eigenvectors:
  1.000  0.000  0.000  0.000  0.000
  0.000  1.000  0.000  0.000  0.000
  0.000  0.000  1.000  0.000  0.000
  0.000  0.000  0.000  1.000  0.000
  0.000  0.000  0.000  0.000  1.000
    occupations:
  1.000  0.000  0.000  0.000  0.000
  0.000  1.000  0.000  0.000  0.000
  0.000  0.000  1.000  0.000  0.000
  0.000  0.000  0.000  1.000  0.000
  0.000  0.000  0.000  0.000  1.000
   spin  2
    eigenvalues: 
  0.200  0.200  0.200  0.200  0.200
    eigenvectors:
  1.000  0.000  0.000  0.000  0.000
  0.000  1.000  0.000  0.000  0.000
  0.000  0.000  1.000  0.000  0.000
  0.000  0.000  0.000  1.000  0.000
  0.000  0.000  0.000  0.000  1.000
    occupations:
  0.200  0.000  0.000  0.000  0.000
  0.000  0.200  0.000  0.000  0.000
  0.000  0.000  0.200  0.000  0.000
  0.000  0.000  0.000  0.200  0.000
  0.000  0.000  0.000  0.000  0.200
atomic mag. moment =     4.000000
atom   11   Tr[ns(na)] (up, down, total) =   5.00000  1.00000  6.00000
   spin  1
    eigenvalues: 
  1.000  1.000  1.000  1.000  1.000
    eigenvectors:
  1.000  0.000  0.000  0.000  0.000
  0.000  1.000  0.000  0.000  0.000
  0.000  0.000  1.000  0.000  0.000
  0.000  0.000  0.000  1.000  0.000
  0.000  0.000  0.000  0.000  1.000
    occupations:
  1.000  0.000  0.000  0.000  0.000
  0.000  1.000  0.000  0.000  0.000
  0.000  0.000  1.000  0.000  0.000
  0.000  0.000  0.000  1.000  0.000
  0.000  0.000  0.000  0.000  1.000
   spin  2
    eigenvalues: 
  0.200  0.200  0.200  0.200  0.200
    eigenvectors:
  1.000  0.000  0.000  0.000  0.000
  0.000  1.000  0.000  0.000  0.000
  0.000  0.000  1.000  0.000  0.000
  0.000  0.000  0.000  1.000  0.000
  0.000  0.000  0.000  0.000  1.000
    occupations:
  0.200  0.000  0.000  0.000  0.000
  0.000  0.200  0.000  0.000  0.000
  0.000  0.000  0.200  0.000  0.000
  0.000  0.000  0.000  0.200  0.000
  0.000  0.000  0.000  0.000  0.200
atomic mag. moment =     4.000000
atom   12   Tr[ns(na)] (up, down, total) =   5.00000  1.00000  6.00000
   spin  1
    eigenvalues: 
  1.000  1.000  1.000  1.000  1.000
    eigenvectors:
  1.000  0.000  0.000  0.000  0.000
  0.000  1.000  0.000  0.000  0.000
  0.000  0.000  1.000  0.000  0.000
  0.000  0.000  0.000  1.000  0.000
  0.000  0.000  0.000  0.000  1.000
    occupations:
  1.000  0.000  0.000  0.000  0.000
  0.000  1.000  0.000  0.000  0.000
  0.000  0.000  1.000  0.000  0.000
  0.000  0.000  0.000  1.000  0.000
  0.000  0.000  0.000  0.000  1.000
   spin  2
    eigenvalues: 
  0.200  0.200  0.200  0.200  0.200
    eigenvectors:
  1.000  0.000  0.000  0.000  0.000
  0.000  1.000  0.000  0.000  0.000
  0.000  0.000  1.000  0.000  0.000
  0.000  0.000  0.000  1.000  0.000
  0.000  0.000  0.000  0.000  1.000
    occupations:
  0.200  0.000  0.000  0.000  0.000
  0.000  0.200  0.000  0.000  0.000
  0.000  0.000  0.200  0.000  0.000
  0.000  0.000  0.000  0.200  0.000
  0.000  0.000  0.000  0.000  0.200
atomic mag. moment =     4.000000
atom   13   Tr[ns(na)] (up, down, total) =   5.00000  1.00000  6.00000
   spin  1
    eigenvalues: 
  1.000  1.000  1.000  1.000  1.000
    eigenvectors:
  1.000  0.000  0.000  0.000  0.000
  0.000  1.000  0.000  0.000  0.000
  0.000  0.000  1.000  0.000  0.000
  0.000  0.000  0.000  1.000  0.000
  0.000  0.000  0.000  0.000  1.000
    occupations:
  1.000  0.000  0.000  0.000  0.000
  0.000  1.000  0.000  0.000  0.000
  0.000  0.000  1.000  0.000  0.000
  0.000  0.000  0.000  1.000  0.000
  0.000  0.000  0.000  0.000  1.000
   spin  2
    eigenvalues: 
  0.200  0.200  0.200  0.200  0.200
    eigenvectors:
  1.000  0.000  0.000  0.000  0.000
  0.000  1.000  0.000  0.000  0.000
  0.000  0.000  1.000  0.000  0.000
  0.000  0.000  0.000  1.000  0.000
  0.000  0.000  0.000  0.000  1.000
    occupations:
  0.200  0.000  0.000  0.000  0.000
  0.000  0.200  0.000  0.000  0.000
  0.000  0.000  0.200  0.000  0.000
  0.000  0.000  0.000  0.200  0.000
  0.000  0.000  0.000  0.000  0.200
atomic mag. moment =     4.000000
atom   14   Tr[ns(na)] (up, down, total) =   5.00000  1.00000  6.00000
   spin  1
    eigenvalues: 
  1.000  1.000  1.000  1.000  1.000
    eigenvectors:
  1.000  0.000  0.000  0.000  0.000
  0.000  1.000  0.000  0.000  0.000
  0.000  0.000  1.000  0.000  0.000
  0.000  0.000  0.000  1.000  0.000
  0.000  0.000  0.000  0.000  1.000
    occupations:
  1.000  0.000  0.000  0.000  0.000
  0.000  1.000  0.000  0.000  0.000
  0.000  0.000  1.000  0.000  0.000
  0.000  0.000  0.000  1.000  0.000
  0.000  0.000  0.000  0.000  1.000
   spin  2
    eigenvalues: 
  0.200  0.200  0.200  0.200  0.200
    eigenvectors:
  1.000  0.000  0.000  0.000  0.000
  0.000  1.000  0.000  0.000  0.000
  0.000  0.000  1.000  0.000  0.000
  0.000  0.000  0.000  1.000  0.000
  0.000  0.000  0.000  0.000  1.000
    occupations:
  0.200  0.000  0.000  0.000  0.000
  0.000  0.200  0.000  0.000  0.000
  0.000  0.000  0.200  0.000  0.000
  0.000  0.000  0.000  0.200  0.000
  0.000  0.000  0.000  0.000  0.200
atomic mag. moment =     4.000000
atom   15   Tr[ns(na)] (up, down, total) =   5.00000  1.00000  6.00000
   spin  1
    eigenvalues: 
  1.000  1.000  1.000  1.000  1.000
    eigenvectors:
  1.000  0.000  0.000  0.000  0.000
  0.000  1.000  0.000  0.000  0.000
  0.000  0.000  1.000  0.000  0.000
  0.000  0.000  0.000  1.000  0.000
  0.000  0.000  0.000  0.000  1.000
    occupations:
  1.000  0.000  0.000  0.000  0.000
  0.000  1.000  0.000  0.000  0.000
  0.000  0.000  1.000  0.000  0.000
  0.000  0.000  0.000  1.000  0.000
  0.000  0.000  0.000  0.000  1.000
   spin  2
    eigenvalues: 
  0.200  0.200  0.200  0.200  0.200
    eigenvectors:
  1.000  0.000  0.000  0.000  0.000
  0.000  1.000  0.000  0.000  0.000
  0.000  0.000  1.000  0.000  0.000
  0.000  0.000  0.000  1.000  0.000
  0.000  0.000  0.000  0.000  1.000
    occupations:
  0.200  0.000  0.000  0.000  0.000
  0.000  0.200  0.000  0.000  0.000
  0.000  0.000  0.200  0.000  0.000
  0.000  0.000  0.000  0.200  0.000
  0.000  0.000  0.000  0.000  0.200
atomic mag. moment =     4.000000
atom   16   Tr[ns(na)] (up, down, total) =   5.00000  1.00000  6.00000
   spin  1
    eigenvalues: 
  1.000  1.000  1.000  1.000  1.000
    eigenvectors:
  1.000  0.000  0.000  0.000  0.000
  0.000  1.000  0.000  0.000  0.000
  0.000  0.000  1.000  0.000  0.000
  0.000  0.000  0.000  1.000  0.000
  0.000  0.000  0.000  0.000  1.000
    occupations:
  1.000  0.000  0.000  0.000  0.000
  0.000  1.000  0.000  0.000  0.000
  0.000  0.000  1.000  0.000  0.000
  0.000  0.000  0.000  1.000  0.000
  0.000  0.000  0.000  0.000  1.000
   spin  2
    eigenvalues: 
  0.200  0.200  0.200  0.200  0.200
    eigenvectors:
  1.000  0.000  0.000  0.000  0.000
  0.000  1.000  0.000  0.000  0.000
  0.000  0.000  1.000  0.000  0.000
  0.000  0.000  0.000  1.000  0.000
  0.000  0.000  0.000  0.000  1.000
    occupations:
  0.200  0.000  0.000  0.000  0.000
  0.000  0.200  0.000  0.000  0.000
  0.000  0.000  0.200  0.000  0.000
  0.000  0.000  0.000  0.200  0.000
  0.000  0.000  0.000  0.000  0.200
atomic mag. moment =     4.000000
atom   17   Tr[ns(na)] (up, down, total) =   5.00000  1.00000  6.00000
   spin  1
    eigenvalues: 
  1.000  1.000  1.000  1.000  1.000
    eigenvectors:
  1.000  0.000  0.000  0.000  0.000
  0.000  1.000  0.000  0.000  0.000
  0.000  0.000  1.000  0.000  0.000
  0.000  0.000  0.000  1.000  0.000
  0.000  0.000  0.000  0.000  1.000
    occupations:
  1.000  0.000  0.000  0.000  0.000
  0.000  1.000  0.000  0.000  0.000
  0.000  0.000  1.000  0.000  0.000
  0.000  0.000  0.000  1.000  0.000
  0.000  0.000  0.000  0.000  1.000
   spin  2
    eigenvalues: 
  0.200  0.200  0.200  0.200  0.200
    eigenvectors:
  1.000  0.000  0.000  0.000  0.000
  0.000  1.000  0.000  0.000  0.000
  0.000  0.000  1.000  0.000  0.000
  0.000  0.000  0.000  1.000  0.000
  0.000  0.000  0.000  0.000  1.000
    occupations:
  0.200  0.000  0.000  0.000  0.000
  0.000  0.200  0.000  0.000  0.000
  0.000  0.000  0.200  0.000  0.000
  0.000  0.000  0.000  0.200  0.000
  0.000  0.000  0.000  0.000  0.200
atomic mag. moment =     4.000000
atom   18   Tr[ns(na)] (up, down, total) =   5.00000  1.00000  6.00000
   spin  1
    eigenvalues: 
  1.000  1.000  1.000  1.000  1.000
    eigenvectors:
  1.000  0.000  0.000  0.000  0.000
  0.000  1.000  0.000  0.000  0.000
  0.000  0.000  1.000  0.000  0.000
  0.000  0.000  0.000  1.000  0.000
  0.000  0.000  0.000  0.000  1.000
    occupations:
  1.000  0.000  0.000  0.000  0.000
  0.000  1.000  0.000  0.000  0.000
  0.000  0.000  1.000  0.000  0.000
  0.000  0.000  0.000  1.000  0.000
  0.000  0.000  0.000  0.000  1.000
   spin  2
    eigenvalues: 
  0.200  0.200  0.200  0.200  0.200
    eigenvectors:
  1.000  0.000  0.000  0.000  0.000
  0.000  1.000  0.000  0.000  0.000
  0.000  0.000  1.000  0.000  0.000
  0.000  0.000  0.000  1.000  0.000
  0.000  0.000  0.000  0.000  1.000
    occupations:
  0.200  0.000  0.000  0.000  0.000
  0.000  0.200  0.000  0.000  0.000
  0.000  0.000  0.200  0.000  0.000
  0.000  0.000  0.000  0.200  0.000
  0.000  0.000  0.000  0.000  0.200
atomic mag. moment =     4.000000
atom   19   Tr[ns(na)] (up, down, total) =   5.00000  1.00000  6.00000
   spin  1
    eigenvalues: 
  1.000  1.000  1.000  1.000  1.000
    eigenvectors:
  1.000  0.000  0.000  0.000  0.000
  0.000  1.000  0.000  0.000  0.000
  0.000  0.000  1.000  0.000  0.000
  0.000  0.000  0.000  1.000  0.000
  0.000  0.000  0.000  0.000  1.000
    occupations:
  1.000  0.000  0.000  0.000  0.000
  0.000  1.000  0.000  0.000  0.000
  0.000  0.000  1.000  0.000  0.000
  0.000  0.000  0.000  1.000  0.000
  0.000  0.000  0.000  0.000  1.000
   spin  2
    eigenvalues: 
  0.200  0.200  0.200  0.200  0.200
    eigenvectors:
  1.000  0.000  0.000  0.000  0.000
  0.000  1.000  0.000  0.000  0.000
  0.000  0.000  1.000  0.000  0.000
  0.000  0.000  0.000  1.000  0.000
  0.000  0.000  0.000  0.000  1.000
    occupations:
  0.200  0.000  0.000  0.000  0.000
  0.000  0.200  0.000  0.000  0.000
  0.000  0.000  0.200  0.000  0.000
  0.000  0.000  0.000  0.200  0.000
  0.000  0.000  0.000  0.000  0.200
atomic mag. moment =     4.000000
atom   20   Tr[ns(na)] (up, down, total) =   5.00000  1.00000  6.00000
   spin  1
    eigenvalues: 
  1.000  1.000  1.000  1.000  1.000
    eigenvectors:
  1.000  0.000  0.000  0.000  0.000
  0.000  1.000  0.000  0.000  0.000
  0.000  0.000  1.000  0.000  0.000
  0.000  0.000  0.000  1.000  0.000
  0.000  0.000  0.000  0.000  1.000
    occupations:
  1.000  0.000  0.000  0.000  0.000
  0.000  1.000  0.000  0.000  0.000
  0.000  0.000  1.000  0.000  0.000
  0.000  0.000  0.000  1.000  0.000
  0.000  0.000  0.000  0.000  1.000
   spin  2
    eigenvalues: 
  0.200  0.200  0.200  0.200  0.200
    eigenvectors:
  1.000  0.000  0.000  0.000  0.000
  0.000  1.000  0.000  0.000  0.000
  0.000  0.000  1.000  0.000  0.000
  0.000  0.000  0.000  1.000  0.000
  0.000  0.000  0.000  0.000  1.000
    occupations:
  0.200  0.000  0.000  0.000  0.000
  0.000  0.200  0.000  0.000  0.000
  0.000  0.000  0.200  0.000  0.000
  0.000  0.000  0.000  0.200  0.000
  0.000  0.000  0.000  0.000  0.200
atomic mag. moment =     4.000000
N of occupied +U levels = 120.0000000
 --- exit write_ns ---
 Atomic wfc used for LDA+U Projector are NOT orthogonalized
     Starting wfc are  266 randomized atomic wfcs
     Checking if some PAW data can be deallocated... 
       node    0, deallocated PAW data for type:  2
       node    0, deallocated PAW data for type:  3
       node    1, deallocated PAW data for type:  2
       node    1, deallocated PAW data for type:  3
       node    2, deallocated PAW data for type:  2
       node    2, deallocated PAW data for type:  3
       node    3, deallocated PAW data for type:  2
       node    3, deallocated PAW data for type:  3
       node    4, deallocated PAW data for type:  2
       node    4, deallocated PAW data for type:  3
       node    5, deallocated PAW data for type:  2
       node    5, deallocated PAW data for type:  3
       node    6, deallocated PAW data for type:  2
       node    6, deallocated PAW data for type:  3
       node    7, deallocated PAW data for type:  2
       node    7, deallocated PAW data for type:  3
       node    8, deallocated PAW data for type:  2
       node    8, deallocated PAW data for type:  3
       node    9, deallocated PAW data for type:  2
       node    9, deallocated PAW data for type:  3
       node   10, deallocated PAW data for type:  2
       node   10, deallocated PAW data for type:  3
       node   11, deallocated PAW data for type:  2
       node   11, deallocated PAW data for type:  3
       node   12, deallocated PAW data for type:  2
       node   12, deallocated PAW data for type:  3
       node   13, deallocated PAW data for type:  2
       node   13, deallocated PAW data for type:  3
       node   14, deallocated PAW data for type:  2
       node   14, deallocated PAW data for type:  3
       node   15, deallocated PAW data for type:  2
       node   15, deallocated PAW data for type:  3
       node   16, deallocated PAW data for type:  2
       node   16, deallocated PAW data for type:  3
       node   17, deallocated PAW data for type:  2
       node   17, deallocated PAW data for type:  3
       node   18, deallocated PAW data for type:  2
       node   18, deallocated PAW data for type:  3
       node   19, deallocated PAW data for type:  2
       node   19, deallocated PAW data for type:  3
       node   20, deallocated PAW data for type:  2
       node   20, deallocated PAW data for type:  3
       node   21, deallocated PAW data for type:  2
       node   21, deallocated PAW data for type:  3
       node   22, deallocated PAW data for type:  2
       node   22, deallocated PAW data for type:  3
       node   23, deallocated PAW data for type:  2
       node   23, deallocated PAW data for type:  3
       node   24, deallocated PAW data for type:  2
       node   24, deallocated PAW data for type:  3
       node   25, deallocated PAW data for type:  2
       node   25, deallocated PAW data for type:  3
       node   26, deallocated PAW data for type:  2
       node   26, deallocated PAW data for type:  3
       node   27, deallocated PAW data for type:  2
       node   27, deallocated PAW data for type:  3
       node   28, deallocated PAW data for type:  2
       node   28, deallocated PAW data for type:  3
       node   29, deallocated PAW data for type:  2
       node   29, deallocated PAW data for type:  3
       node   30, deallocated PAW data for type:  2
       node   30, deallocated PAW data for type:  3
       node   31, deallocated PAW data for type:  2
       node   31, deallocated PAW data for type:  3
       node   32, deallocated PAW data for type:  2
       node   32, deallocated PAW data for type:  3
       node   33, deallocated PAW data for type:  2
       node   33, deallocated PAW data for type:  3
       node   34, deallocated PAW data for type:  2
       node   34, deallocated PAW data for type:  3
       node   35, deallocated PAW data for type:  2
       node   35, deallocated PAW data for type:  3
       node   36, deallocated PAW data for type:  2
       node   36, deallocated PAW data for type:  3
       node   37, deallocated PAW data for type:  2
       node   37, deallocated PAW data for type:  3
       node   38, deallocated PAW data for type:  2
       node   38, deallocated PAW data for type:  3
       node   39, deallocated PAW data for type:  2
       node   39, deallocated PAW data for type:  3
       node   40, deallocated PAW data for type:  2
       node   40, deallocated PAW data for type:  3
       node   41, deallocated PAW data for type:  2
       node   41, deallocated PAW data for type:  3
       node   42, deallocated PAW data for type:  1
       node   42, deallocated PAW data for type:  3
       node   43, deallocated PAW data for type:  1
       node   43, deallocated PAW data for type:  3
       node   44, deallocated PAW data for type:  1
       node   44, deallocated PAW data for type:  2
       node   45, deallocated PAW data for type:  1
       node   45, deallocated PAW data for type:  2
       node   46, deallocated PAW data for type:  1
       node   46, deallocated PAW data for type:  2
       node   47, deallocated PAW data for type:  1
       node   47, deallocated PAW data for type:  2

     total cpu time spent up to now is       41.1 secs

     per-process dynamical memory:   315.0 Mb

     Self-consistent Calculation

     iteration #  1     ecut=    95.00 Ry     beta=0.50
     Davidson diagonalization with overlap
     ethr =  1.00E-02,  avg # of iterations =  2.8
 --- enter write_ns ---
 LDA+U parameters:
U( 1)     =  0.00000000
alpha( 1) =  0.00000000
atom    1   Tr[ns(na)] (up, down, total) =   4.98373  1.05899  6.04272
   spin  1
    eigenvalues: 
  0.996  0.996  0.997  0.997  0.997
    eigenvectors:
  0.845  0.000  0.000  0.128  0.026
  0.003  0.334  0.000  0.038  0.625
  0.003  0.666  0.000  0.020  0.310
  0.016  0.000  0.892  0.088  0.004
  0.132  0.000  0.108  0.725  0.035
    occupations:
  0.996  0.000 -0.000  0.000 -0.001
  0.000  0.997 -0.000 -0.000  0.000
 -0.000 -0.000  0.997  0.000 -0.000
  0.000 -0.000  0.000  0.997 -0.000
 -0.001  0.000 -0.000 -0.000  0.997
   spin  2
    eigenvalues: 
  0.149  0.196  0.203  0.214  0.296
    eigenvectors:
  0.000  0.000  0.997  0.000  0.003
  0.333  0.667  0.000  0.000  0.000
  0.667  0.333  0.000  0.000  0.000
  0.000  0.000  0.001  0.887  0.112
  0.000  0.000  0.002  0.112  0.885
    occupations:
  0.203 -0.000 -0.000  0.002 -0.005
 -0.000  0.180 -0.023 -0.000  0.000
 -0.000 -0.023  0.165  0.000 -0.000
  0.002 -0.000  0.000  0.224 -0.026
 -0.005  0.000 -0.000 -0.026  0.287
atomic mag. moment =     3.924736
atom    2   Tr[ns(na)] (up, down, total) =   4.98370  1.05746  6.04116
   spin  1
    eigenvalues: 
  0.996  0.996  0.997  0.997  0.998
    eigenvectors:
  0.776  0.000  0.002  0.204  0.018
  0.000  0.366  0.000  0.066  0.567
  0.002  0.622  0.000  0.006  0.369
  0.037  0.001  0.893  0.064  0.004
  0.184  0.010  0.105  0.660  0.041
    occupations:
  0.996  0.000  0.000  0.000 -0.001
  0.000  0.997 -0.001  0.000 -0.000
  0.000 -0.001  0.997  0.000 -0.000
  0.000  0.000  0.000  0.997 -0.000
 -0.001 -0.000 -0.000 -0.000  0.997
   spin  2
    eigenvalues: 
  0.148  0.196  0.203  0.214  0.296
    eigenvectors:
  0.000  0.001  0.996  0.001  0.003
  0.333  0.666  0.001  0.000  0.000
  0.666  0.333  0.000  0.000  0.000
  0.000  0.000  0.000  0.890  0.110
  0.000  0.000  0.003  0.109  0.887
    occupations:
  0.203  0.000  0.000  0.001 -0.005
  0.000  0.180 -0.023  0.000  0.000
  0.000 -0.023  0.164  0.000  0.000
  0.001  0.000  0.000  0.223 -0.025
 -0.005  0.000  0.000 -0.025  0.286
atomic mag. moment =     3.926237
atom    3   Tr[ns(na)] (up, down, total) =   4.98366  1.05815  6.04181
   spin  1
    eigenvalues: 
  0.996  0.996  0.997  0.997  0.997
    eigenvectors:
  0.782  0.000  0.001  0.202  0.015
  0.001  0.295  0.001  0.020  0.684
  0.001  0.689  0.003  0.045  0.262
  0.018  0.000  0.882  0.096  0.004
  0.198  0.016  0.113  0.637  0.035
    occupations:
  0.996 -0.000 -0.000  0.000 -0.001
 -0.000  0.997 -0.000 -0.000  0.000
 -0.000 -0.000  0.997 -0.000  0.000
  0.000 -0.000 -0.000  0.997 -0.000
 -0.001  0.000  0.000 -0.000  0.997
   spin  2
    eigenvalues: 
  0.149  0.196  0.203  0.215  0.296
    eigenvectors:
  0.000  0.000  0.996  0.001  0.003
  0.333  0.667  0.000  0.000  0.000
  0.667  0.333  0.000  0.000  0.000
  0.000  0.000  0.000  0.887  0.113
  0.000  0.000  0.003  0.112  0.885
    occupations:
  0.203  0.000 -0.000  0.001 -0.005
  0.000  0.180 -0.022 -0.000 -0.000
 -0.000 -0.022  0.164 -0.000  0.000
  0.001 -0.000 -0.000  0.224 -0.026
 -0.005 -0.000  0.000 -0.026  0.286
atomic mag. moment =     3.925514
atom    4   Tr[ns(na)] (up, down, total) =   4.98360  1.05668  6.04028
   spin  1
    eigenvalues: 
  0.996  0.997  0.997  0.997  0.998
    eigenvectors:
  0.902  0.000  0.000  0.098  0.000
  0.000  0.018  0.315  0.003  0.663
  0.000  0.039  0.627  0.002  0.331
  0.011  0.839  0.052  0.097  0.001
  0.086  0.103  0.005  0.800  0.005
    occupations:
  0.996 -0.000  0.000  0.000 -0.000
 -0.000  0.997 -0.000 -0.000 -0.000
  0.000 -0.000  0.997 -0.000  0.000
  0.000 -0.000 -0.000  0.997 -0.000
 -0.000 -0.000  0.000 -0.000  0.997
   spin  2
    eigenvalues: 
  0.148  0.196  0.203  0.214  0.295
    eigenvectors:
  0.000  0.003  0.994  0.000  0.003
  0.335  0.663  0.002  0.000  0.000
  0.665  0.334  0.001  0.000  0.000
  0.000  0.000  0.001  0.890  0.110
  0.000  0.000  0.002  0.110  0.888
    occupations:
  0.203 -0.000  0.000  0.002 -0.005
 -0.000  0.180 -0.023 -0.000  0.000
  0.000 -0.023  0.164  0.000  0.000
  0.002 -0.000  0.000  0.223 -0.025
 -0.005  0.000  0.000 -0.025  0.286
atomic mag. moment =     3.926921
atom    5   Tr[ns(na)] (up, down, total) =   4.98248  2.02288  7.00536
   spin  1
    eigenvalues: 
  0.996  0.996  0.996  0.997  0.997
    eigenvectors:
  0.310  0.416  0.077  0.197  0.000
  0.017  0.020  0.313  0.001  0.650
  0.026  0.048  0.574  0.006  0.346
  0.416  0.507  0.005  0.071  0.001
  0.231  0.010  0.031  0.726  0.003
    occupations:
  0.996  0.000  0.000  0.000 -0.000
  0.000  0.997 -0.001  0.000  0.000
  0.000 -0.001  0.997 -0.000  0.000
  0.000  0.000 -0.000  0.996 -0.000
 -0.000  0.000  0.000 -0.000  0.997
   spin  2
    eigenvalues: 
  0.365  0.366  0.412  0.439  0.440
    eigenvectors:
  0.003  0.208  0.000  0.521  0.268
  0.659  0.009  0.332  0.000  0.000
  0.327  0.005  0.668  0.000  0.000
  0.001  0.087  0.000  0.180  0.732
  0.010  0.691  0.000  0.299  0.000
    occupations:
  0.424 -0.000 -0.000 -0.011  0.028
 -0.000  0.381  0.022 -0.000 -0.001
 -0.000  0.022  0.396 -0.000 -0.000
 -0.011 -0.000 -0.000  0.434  0.018
  0.028 -0.001 -0.000  0.018  0.388
atomic mag. moment =     2.959605
atom    6   Tr[ns(na)] (up, down, total) =   4.98251  2.02342  7.00593
   spin  1
    eigenvalues: 
  0.996  0.996  0.996  0.997  0.997
    eigenvectors:
  0.342  0.402  0.061  0.194  0.002
  0.012  0.017  0.284  0.014  0.672
  0.031  0.030  0.622  0.000  0.317
  0.615  0.274  0.005  0.105  0.001
  0.000  0.276  0.028  0.687  0.009
    occupations:
  0.996 -0.000 -0.000  0.000 -0.000
 -0.000  0.997 -0.001  0.000 -0.000
 -0.000 -0.001  0.997  0.000  0.000
  0.000  0.000  0.000  0.996 -0.000
 -0.000 -0.000  0.000 -0.000  0.997
   spin  2
    eigenvalues: 
  0.365  0.367  0.413  0.438  0.441
    eigenvectors:
  0.000  0.207  0.000  0.791  0.002
  0.663  0.001  0.335  0.000  0.000
  0.336  0.000  0.664  0.000  0.000
  0.000  0.088  0.000  0.040  0.872
  0.001  0.704  0.000  0.169  0.126
    occupations:
  0.423  0.001  0.000 -0.009  0.027
  0.001  0.381  0.023 -0.001 -0.000
  0.000  0.023  0.397  0.000 -0.000
 -0.009 -0.001  0.000  0.434  0.018
  0.027 -0.000 -0.000  0.018  0.389
atomic mag. moment =     2.959090
atom    7   Tr[ns(na)] (up, down, total) =   4.98279  2.02098  7.00378
   spin  1
    eigenvalues: 
  0.996  0.996  0.996  0.997  0.998
    eigenvectors:
  0.000  0.599  0.002  0.253  0.145
  0.001  0.002  0.331  0.233  0.433
  0.002  0.002  0.661  0.115  0.220
  0.885  0.045  0.005  0.043  0.022
  0.111  0.352  0.000  0.356  0.180
    occupations:
  0.997  0.000 -0.000  0.000 -0.001
  0.000  0.997 -0.001 -0.000 -0.000
 -0.000 -0.001  0.997 -0.000  0.000
  0.000 -0.000 -0.000  0.996 -0.000
 -0.001 -0.000  0.000 -0.000  0.997
   spin  2
    eigenvalues: 
  0.365  0.367  0.411  0.438  0.440
    eigenvectors:
  0.001  0.202  0.000  0.795  0.002
  0.658  0.003  0.339  0.000  0.000
  0.338  0.001  0.661  0.000  0.000
  0.000  0.088  0.000  0.037  0.875
  0.003  0.706  0.000  0.168  0.123
    occupations:
  0.423  0.000 -0.000 -0.009  0.027
  0.000  0.381  0.022 -0.000  0.000
 -0.000  0.022  0.395 -0.000  0.000
 -0.009 -0.000 -0.000  0.434  0.018
  0.027  0.000  0.000  0.018  0.388
atomic mag. moment =     2.961812
atom    8   Tr[ns(na)] (up, down, total) =   4.98259  2.02184  7.00442
   spin  1
    eigenvalues: 
  0.996  0.996  0.996  0.997  0.997
    eigenvectors:
  0.000  0.530  0.046  0.265  0.159
  0.000  0.030  0.308  0.239  0.422
  0.001  0.050  0.611  0.122  0.216
  0.891  0.038  0.009  0.040  0.022
  0.107  0.352  0.026  0.335  0.180
    occupations:
  0.997 -0.000  0.000  0.000 -0.001
 -0.000  0.997 -0.001 -0.000  0.000
  0.000 -0.001  0.997  0.000 -0.000
  0.000 -0.000  0.000  0.996 -0.000
 -0.001  0.000 -0.000 -0.000  0.997
   spin  2
    eigenvalues: 
  0.365  0.367  0.411  0.438  0.440
    eigenvectors:
  0.003  0.192  0.000  0.804  0.000
  0.661  0.009  0.330  0.000  0.000
  0.326  0.004  0.670  0.000  0.000
  0.001  0.089  0.000  0.016  0.894
  0.009  0.705  0.000  0.180  0.105
    occupations:
  0.425 -0.000 -0.000 -0.010  0.027
 -0.000  0.380  0.022  0.000 -0.000
 -0.000  0.022  0.396 -0.000  0.000
 -0.010  0.000 -0.000  0.434  0.019
  0.027 -0.000  0.000  0.019  0.388
atomic mag. moment =     2.960749
atom    9   Tr[ns(na)] (up, down, total) =   4.98215  2.04192  7.02407
   spin  1
    eigenvalues: 
  0.996  0.996  0.996  0.997  0.997
    eigenvectors:
  0.004  0.842  0.000  0.147  0.007
  0.000  0.000  0.326  0.040  0.634
  0.002  0.000  0.672  0.018  0.308
  0.870  0.037  0.001  0.085  0.007
  0.125  0.121  0.000  0.710  0.044
    occupations:
  0.996  0.000 -0.000  0.000 -0.000
  0.000  0.997 -0.001  0.000 -0.000
 -0.000 -0.001  0.997 -0.000  0.000
  0.000  0.000 -0.000  0.996 -0.000
 -0.000 -0.000  0.000 -0.000  0.997
   spin  2
    eigenvalues: 
  0.366  0.369  0.431  0.437  0.439
    eigenvectors:
  0.343  0.001  0.653  0.000  0.003
  0.001  0.669  0.001  0.040  0.288
  0.001  0.329  0.003  0.087  0.580
  0.073  0.000  0.041  0.780  0.105
  0.582  0.001  0.301  0.092  0.023
    occupations:
  0.409  0.000  0.000 -0.010  0.029
  0.000  0.392  0.033  0.001  0.000
  0.000  0.033  0.416  0.000  0.000
 -0.010  0.001  0.000  0.432  0.015
  0.029  0.000  0.000  0.015  0.394
atomic mag. moment =     2.940235
atom   10   Tr[ns(na)] (up, down, total) =   4.98236  2.02480  7.00716
   spin  1
    eigenvalues: 
  0.996  0.996  0.996  0.997  0.997
    eigenvectors:
  0.833  0.000  0.004  0.162  0.001
  0.002  0.000  0.351  0.005  0.643
  0.002  0.006  0.640  0.001  0.351
  0.020  0.863  0.004  0.113  0.000
  0.144  0.130  0.001  0.719  0.005
    occupations:
  0.996  0.000  0.000  0.000 -0.001
  0.000  0.997 -0.001 -0.000 -0.000
  0.000 -0.001  0.997  0.000  0.000
  0.000 -0.000  0.000  0.996 -0.000
 -0.001 -0.000  0.000 -0.000  0.997
   spin  2
    eigenvalues: 
  0.363  0.370  0.426  0.430  0.435
    eigenvectors:
  0.329  0.000  0.275  0.393  0.003
  0.001  0.673  0.191  0.134  0.000
  0.001  0.325  0.405  0.268  0.000
  0.073  0.000  0.005  0.012  0.910
  0.595  0.001  0.123  0.193  0.087
    occupations:
  0.407 -0.001 -0.001 -0.011  0.029
 -0.001  0.389  0.027  0.001 -0.001
 -0.001  0.027  0.409  0.000 -0.002
 -0.011  0.001  0.000  0.430  0.016
  0.029 -0.001 -0.002  0.016  0.390
atomic mag. moment =     2.957557
atom   11   Tr[ns(na)] (up, down, total) =   4.98235  2.02248  7.00483
   spin  1
    eigenvalues: 
  0.996  0.996  0.996  0.997  0.997
    eigenvectors:
  0.837  0.000  0.005  0.158  0.001
  0.001  0.007  0.312  0.001  0.678
  0.003  0.004  0.672  0.002  0.318
  0.017  0.898  0.010  0.073  0.002
  0.142  0.091  0.000  0.765  0.002
    occupations:
  0.996 -0.000 -0.000  0.000 -0.001
 -0.000  0.997 -0.001  0.000 -0.000
 -0.000 -0.001  0.997 -0.000 -0.000
  0.000  0.000 -0.000  0.996 -0.000
 -0.001 -0.000 -0.000 -0.000  0.997
   spin  2
    eigenvalues: 
  0.363  0.369  0.427  0.429  0.434
    eigenvectors:
  0.333  0.001  0.444  0.219  0.003
  0.005  0.653  0.123  0.219  0.000
  0.001  0.341  0.213  0.444  0.000
  0.075  0.000  0.050  0.018  0.856
  0.587  0.005  0.170  0.099  0.139
    occupations:
  0.406 -0.001  0.001 -0.010  0.029
 -0.001  0.389  0.028 -0.001  0.000
  0.001  0.028  0.408 -0.000  0.001
 -0.010 -0.001 -0.000  0.429  0.016
  0.029  0.000  0.001  0.016  0.390
atomic mag. moment =     2.959873
atom   12   Tr[ns(na)] (up, down, total) =   4.98238  2.05563  7.03801
   spin  1
    eigenvalues: 
  0.996  0.996  0.996  0.997  0.997
    eigenvectors:
  0.000  0.861  0.000  0.133  0.006
  0.000  0.000  0.333  0.017  0.650
  0.000  0.000  0.666  0.010  0.324
  0.886  0.013  0.000  0.097  0.002
  0.113  0.125  0.000  0.743  0.018
    occupations:
  0.996 -0.000  0.000  0.000 -0.000
 -0.000  0.997 -0.001 -0.000  0.000
  0.000 -0.001  0.997  0.000 -0.000
  0.000 -0.000  0.000  0.996 -0.000
 -0.000  0.000 -0.000 -0.000  0.997
   spin  2
    eigenvalues: 
  0.368  0.370  0.436  0.440  0.443
    eigenvectors:
  0.333  0.000  0.665  0.000  0.001
  0.000  0.670  0.001  0.002  0.327
  0.000  0.330  0.001  0.004  0.665
  0.075  0.000  0.030  0.888  0.007
  0.592  0.000  0.303  0.105  0.000
    occupations:
  0.413  0.000 -0.000 -0.011  0.030
  0.000  0.394  0.034  0.000  0.000
 -0.000  0.034  0.419  0.000 -0.000
 -0.011  0.000  0.000  0.434  0.015
  0.030  0.000 -0.000  0.015  0.396
atomic mag. moment =     2.926755
atom   13   Tr[ns(na)] (up, down, total) =   4.98205  2.04989  7.03194
   spin  1
    eigenvalues: 
  0.995  0.996  0.996  0.997  0.998
    eigenvectors:
  0.487  0.209  0.133  0.169  0.002
  0.033  0.025  0.273  0.010  0.659
  0.035  0.134  0.500  0.002  0.329
  0.230  0.626  0.058  0.081  0.005
  0.214  0.006  0.037  0.738  0.005
    occupations:
  0.996  0.000  0.000  0.000 -0.001
  0.000  0.997 -0.001  0.000  0.000
  0.000 -0.001  0.996 -0.000 -0.000
  0.000  0.000 -0.000  0.996 -0.000
 -0.001  0.000 -0.000 -0.000  0.997
   spin  2
    eigenvalues: 
  0.362  0.371  0.428  0.441  0.447
    eigenvectors:
  0.018  0.188  0.050  0.514  0.230
  0.636  0.049  0.295  0.006  0.014
  0.272  0.045  0.648  0.018  0.016
  0.005  0.097  0.001  0.440  0.456
  0.069  0.621  0.005  0.021  0.284
    occupations:
  0.427  0.000  0.002 -0.008  0.028
  0.000  0.384  0.030  0.001  0.005
  0.002  0.030  0.408 -0.001  0.002
 -0.008  0.001 -0.001  0.437  0.021
  0.028  0.005  0.002  0.021  0.394
atomic mag. moment =     2.932155
atom   14   Tr[ns(na)] (up, down, total) =   4.98199  2.04800  7.02999
   spin  1
    eigenvalues: 
  0.995  0.996  0.996  0.997  0.998
    eigenvectors:
  0.508  0.170  0.152  0.169  0.001
  0.018  0.092  0.227  0.000  0.662
  0.066  0.084  0.512  0.012  0.326
  0.403  0.482  0.007  0.098  0.010
  0.006  0.171  0.102  0.721  0.000
    occupations:
  0.996 -0.000 -0.000  0.000 -0.001
 -0.000  0.997 -0.001 -0.000 -0.000
 -0.000 -0.001  0.996  0.000  0.000
  0.000 -0.000  0.000  0.996 -0.000
 -0.001 -0.000  0.000 -0.000  0.997
   spin  2
    eigenvalues: 
  0.362  0.371  0.428  0.440  0.447
    eigenvectors:
  0.017  0.186  0.053  0.490  0.255
  0.574  0.081  0.329  0.006  0.011
  0.329  0.020  0.606  0.010  0.035
  0.012  0.062  0.011  0.216  0.699
  0.069  0.652  0.001  0.278  0.000
    occupations:
  0.427 -0.001 -0.001 -0.011  0.026
 -0.001  0.386  0.031 -0.000 -0.000
 -0.001  0.031  0.406  0.005 -0.004
 -0.011 -0.000  0.005  0.440  0.016
  0.026 -0.000 -0.004  0.016  0.390
atomic mag. moment =     2.933987
atom   15   Tr[ns(na)] (up, down, total) =   4.98313  2.07193  7.05506
   spin  1
    eigenvalues: 
  0.996  0.996  0.997  0.997  0.997
    eigenvectors:
  0.000  0.853  0.000  0.146  0.001
  0.003  0.010  0.333  0.089  0.566
  0.007  0.004  0.657  0.038  0.294
  0.880  0.016  0.010  0.080  0.015
  0.110  0.117  0.000  0.648  0.124
    occupations:
  0.996  0.000 -0.000  0.000 -0.000
  0.000  0.997 -0.000 -0.000  0.000
 -0.000 -0.000  0.997 -0.000 -0.000
  0.000 -0.000 -0.000  0.996 -0.000
 -0.000  0.000 -0.000 -0.000  0.997
   spin  2
    eigenvalues: 
  0.368  0.371  0.428  0.446  0.459
    eigenvectors:
  0.020  0.120  0.000  0.000  0.859
  0.582  0.081  0.321  0.015  0.001
  0.299  0.038  0.636  0.028  0.000
  0.010  0.085  0.038  0.852  0.014
  0.089  0.676  0.005  0.105  0.126
    occupations:
  0.446 -0.001  0.001 -0.010  0.029
 -0.001  0.389  0.029  0.002  0.001
  0.001  0.029  0.409  0.003  0.000
 -0.010  0.002  0.003  0.438  0.019
  0.029  0.001  0.000  0.019  0.390
atomic mag. moment =     2.911201
atom   16   Tr[ns(na)] (up, down, total) =   4.98191  1.97296  6.95488
   spin  1
    eigenvalues: 
  0.995  0.996  0.997  0.997  0.997
    eigenvectors:
  0.004  0.926  0.000  0.059  0.011
  0.001  0.004  0.338  0.246  0.411
  0.002  0.001  0.659  0.122  0.216
  0.872  0.021  0.002  0.063  0.042
  0.122  0.048  0.000  0.509  0.321
    occupations:
  0.996 -0.000  0.000  0.000 -0.000
 -0.000  0.997 -0.000  0.000 -0.000
  0.000 -0.000  0.997  0.000  0.000
  0.000  0.000  0.000  0.996 -0.000
 -0.000 -0.000  0.000 -0.000  0.997
   spin  2
    eigenvalues: 
  0.358  0.364  0.392  0.421  0.438
    eigenvectors:
  0.034  0.073  0.000  0.000  0.893
  0.520  0.138  0.340  0.000  0.001
  0.268  0.072  0.659  0.001  0.001
  0.019  0.081  0.001  0.883  0.017
  0.160  0.636  0.000  0.115  0.089
    occupations:
  0.430  0.003 -0.003 -0.008  0.022
  0.003  0.371  0.015  0.001 -0.001
 -0.003  0.015  0.381  0.001  0.001
 -0.008  0.001  0.001  0.415  0.016
  0.022 -0.001  0.001  0.016  0.376
atomic mag. moment =     3.008947
atom   17   Tr[ns(na)] (up, down, total) =   4.98388  1.12949  6.11337
   spin  1
    eigenvalues: 
  0.995  0.996  0.997  0.997  0.998
    eigenvectors:
  0.830  0.000  0.154  0.000  0.016
  0.012  0.022  0.000  0.313  0.652
  0.006  0.045  0.000  0.619  0.329
  0.016  0.835  0.089  0.060  0.000
  0.136  0.097  0.757  0.008  0.002
    occupations:
  0.995 -0.000  0.000  0.000 -0.001
 -0.000  0.998 -0.000 -0.000 -0.000
  0.000 -0.000  0.997 -0.000  0.000
  0.000 -0.000 -0.000  0.997 -0.000
 -0.001 -0.000  0.000 -0.000  0.997
   spin  2
    eigenvalues: 
  0.156  0.194  0.231  0.243  0.306
    eigenvectors:
  0.000  0.032  0.966  0.000  0.002
  0.331  0.639  0.020  0.000  0.010
  0.669  0.317  0.009  0.000  0.005
  0.000  0.001  0.000  0.894  0.105
  0.000  0.012  0.004  0.105  0.879
    occupations:
  0.230  0.006 -0.004 -0.001  0.002
  0.006  0.183 -0.019 -0.002  0.011
 -0.004 -0.019  0.170  0.004 -0.007
 -0.001 -0.002  0.004  0.249 -0.019
  0.002  0.011 -0.007 -0.019  0.298
atomic mag. moment =     3.854391
atom   18   Tr[ns(na)] (up, down, total) =   4.97502  1.33370  6.30873
   spin  1
    eigenvalues: 
  0.989  0.993  0.997  0.998  0.998
    eigenvectors:
  0.103  0.336  0.025  0.478  0.058
  0.478  0.115  0.008  0.066  0.333
  0.366  0.022  0.110  0.025  0.477
  0.001  0.095  0.795  0.020  0.088
  0.052  0.432  0.062  0.410  0.044
    occupations:
  0.995 -0.001 -0.001 -0.001 -0.002
 -0.001  0.993 -0.004  0.001 -0.000
 -0.001 -0.004  0.994  0.000 -0.001
 -0.001  0.001  0.000  0.997 -0.001
 -0.002 -0.000 -0.001 -0.001  0.995
   spin  2
    eigenvalues: 
  0.203  0.225  0.274  0.303  0.328
    eigenvectors:
  0.049  0.834  0.091  0.008  0.019
  0.304  0.044  0.009  0.599  0.045
  0.586  0.003  0.054  0.356  0.001
  0.060  0.039  0.488  0.001  0.412
  0.000  0.081  0.358  0.037  0.524
    occupations:
  0.231  0.004  0.011  0.000  0.018
  0.004  0.270  0.044 -0.018  0.002
  0.011  0.044  0.243  0.015 -0.004
  0.000 -0.018  0.015  0.290 -0.028
  0.018  0.002 -0.004 -0.028  0.299
atomic mag. moment =     3.641321
atom   19   Tr[ns(na)] (up, down, total) =   4.97506  1.33161  6.30667
   spin  1
    eigenvalues: 
  0.989  0.993  0.997  0.998  0.998
    eigenvectors:
  0.101  0.338  0.026  0.469  0.066
  0.115  0.001  0.118  0.066  0.700
  0.731  0.134  0.001  0.038  0.096
  0.012  0.428  0.287  0.264  0.008
  0.040  0.099  0.568  0.163  0.130
    occupations:
  0.995  0.001  0.001  0.002 -0.001
  0.001  0.997 -0.003 -0.000  0.000
  0.001 -0.003  0.991  0.000  0.001
  0.002 -0.000  0.000  0.996  0.001
 -0.001  0.000  0.001  0.001  0.996
   spin  2
    eigenvalues: 
  0.203  0.225  0.273  0.304  0.327
    eigenvectors:
  0.050  0.837  0.085  0.009  0.019
  0.817  0.016  0.064  0.092  0.012
  0.069  0.033  0.000  0.871  0.027
  0.035  0.105  0.850  0.008  0.001
  0.029  0.009  0.001  0.020  0.941
    occupations:
  0.230 -0.009 -0.008 -0.011  0.014
 -0.009  0.219  0.025  0.013  0.017
 -0.008  0.025  0.295 -0.009 -0.007
 -0.011  0.013 -0.009  0.266  0.001
  0.014  0.017 -0.007  0.001  0.322
atomic mag. moment =     3.643450
atom   20   Tr[ns(na)] (up, down, total) =   4.97879  1.23064  6.20944
   spin  1
    eigenvalues: 
  0.993  0.995  0.996  0.997  0.997
    eigenvectors:
  0.030  0.592  0.000  0.000  0.378
  0.644  0.005  0.039  0.291  0.021
  0.320  0.002  0.077  0.592  0.008
  0.001  0.045  0.783  0.102  0.070
  0.006  0.356  0.101  0.015  0.523
    occupations:
  0.996  0.000 -0.000 -0.000  0.001
  0.000  0.994  0.002 -0.000  0.000
 -0.000  0.002  0.996 -0.000 -0.000
 -0.000 -0.000 -0.000  0.997  0.000
  0.001  0.000 -0.000  0.000  0.996
   spin  2
    eigenvalues: 
  0.160  0.212  0.268  0.280  0.310
    eigenvectors:
  0.000  0.942  0.000  0.006  0.051
  0.325  0.000  0.009  0.594  0.072
  0.654  0.000  0.012  0.298  0.037
  0.019  0.007  0.875  0.014  0.086
  0.002  0.051  0.104  0.089  0.754
    occupations:
  0.218  0.002 -0.001  0.007 -0.021
  0.002  0.243 -0.057  0.011 -0.004
 -0.001 -0.057  0.203  0.010  0.009
  0.007  0.011  0.010  0.270 -0.011
 -0.021 -0.004  0.009 -0.011  0.297
atomic mag. moment =     3.748149
N of occupied +U levels = 133.2696204
 --- exit write_ns ---

     negative rho (up, down):  0.000E+00 0.342E-03
 --- in v_hubbard ---
Hubbard energy    0.0000
 -------

     total cpu time spent up to now is      114.6 secs

     total energy              =   -6623.59485086 Ry
     Harris-Foulkes estimate   =   -6614.20620654 Ry
     estimated scf accuracy    <      28.64562726 Ry

     total magnetization       =    73.74 Bohr mag/cell
     absolute magnetization    =    74.82 Bohr mag/cell

     iteration #  2     ecut=    95.00 Ry     beta=0.50
     Davidson diagonalization with overlap
     ethr =  8.73E-03,  avg # of iterations =  1.0
 --- enter write_ns ---
 LDA+U parameters:
U( 1)     =  0.00000000
alpha( 1) =  0.00000000
atom    1   Tr[ns(na)] (up, down, total) =   4.97837  1.81777  6.79614
   spin  1
    eigenvalues: 
  0.994  0.995  0.996  0.996  0.997
    eigenvectors:
  0.729  0.270  0.000  0.000  0.001
  0.000  0.000  0.005  0.328  0.666
  0.000  0.000  0.009  0.658  0.333
  0.031  0.073  0.884  0.012  0.000
  0.240  0.657  0.102  0.001  0.000
    occupations:
  0.995  0.000 -0.000  0.000 -0.001
  0.000  0.997 -0.001  0.000  0.000
 -0.000 -0.001  0.996  0.000 -0.000
  0.000  0.000  0.000  0.996  0.000
 -0.001  0.000 -0.000  0.000  0.995
   spin  2
    eigenvalues: 
  0.289  0.290  0.339  0.439  0.461
    eigenvectors:
  0.000  0.000  0.728  0.272  0.000
  0.340  0.660  0.000  0.000  0.000
  0.660  0.340  0.000  0.000  0.000
  0.000  0.000  0.030  0.082  0.889
  0.000  0.000  0.242  0.646  0.111
    occupations:
  0.366 -0.000  0.000 -0.015  0.042
 -0.000  0.290 -0.001  0.000 -0.000
  0.000 -0.001  0.289  0.000  0.000
 -0.015  0.000  0.000  0.455  0.015
  0.042 -0.000  0.000  0.015  0.417
atomic mag. moment =     3.160606
atom    2   Tr[ns(na)] (up, down, total) =   4.97860  1.81748  6.79608
   spin  1
    eigenvalues: 
  0.994  0.996  0.996  0.996  0.997
    eigenvectors:
  0.834  0.155  0.001  0.011  0.000
  0.001  0.006  0.008  0.330  0.656
  0.003  0.012  0.014  0.628  0.344
  0.013  0.054  0.920  0.014  0.000
  0.150  0.774  0.058  0.017  0.000
    occupations:
  0.994  0.000  0.000  0.000 -0.000
  0.000  0.997 -0.001 -0.000 -0.000
  0.000 -0.001  0.996 -0.000 -0.000
  0.000 -0.000 -0.000  0.996  0.000
 -0.000 -0.000 -0.000  0.000  0.995
   spin  2
    eigenvalues: 
  0.289  0.290  0.339  0.439  0.461
    eigenvectors:
  0.000  0.000  0.725  0.275  0.000
  0.269  0.731  0.000  0.000  0.000
  0.731  0.269  0.000  0.000  0.000
  0.000  0.000  0.031  0.077  0.892
  0.000  0.000  0.243  0.649  0.108
    occupations:
  0.366  0.000  0.000 -0.015  0.042
  0.000  0.290 -0.001  0.000  0.000
  0.000 -0.001  0.289 -0.000  0.001
 -0.015  0.000 -0.000  0.455  0.015
  0.042  0.000  0.001  0.015  0.417
atomic mag. moment =     3.161116
atom    3   Tr[ns(na)] (up, down, total) =   4.97857  1.81759  6.79616
   spin  1
    eigenvalues: 
  0.994  0.996  0.996  0.996  0.997
    eigenvectors:
  0.834  0.157  0.000  0.009  0.000
  0.001  0.004  0.002  0.314  0.677
  0.002  0.008  0.007  0.660  0.322
  0.026  0.148  0.811  0.016  0.000
  0.137  0.682  0.179  0.001  0.000
    occupations:
  0.994 -0.000 -0.000  0.000 -0.000
 -0.000  0.997 -0.001  0.000 -0.000
 -0.000 -0.001  0.996 -0.000 -0.000
  0.000  0.000 -0.000  0.996  0.000
 -0.000 -0.000 -0.000  0.000  0.995
   spin  2
    eigenvalues: 
  0.289  0.290  0.338  0.439  0.461
    eigenvectors:
  0.000  0.000  0.725  0.275  0.000
  0.647  0.353  0.000  0.000  0.000
  0.353  0.647  0.000  0.000  0.000
  0.000  0.000  0.031  0.076  0.893
  0.000  0.000  0.244  0.650  0.107
    occupations:
  0.366 -0.000 -0.000 -0.015  0.042
 -0.000  0.289 -0.000 -0.000 -0.000
 -0.000 -0.000  0.290  0.000 -0.000
 -0.015 -0.000  0.000  0.455  0.015
  0.042 -0.000 -0.000  0.015  0.417
atomic mag. moment =     3.160988
atom    4   Tr[ns(na)] (up, down, total) =   4.97827  1.81854  6.79682
   spin  1
    eigenvalues: 
  0.994  0.995  0.996  0.996  0.997
    eigenvectors:
  0.797  0.203  0.000  0.000  0.000
  0.000  0.000  0.001  0.333  0.666
  0.000  0.000  0.002  0.663  0.334
  0.023  0.082  0.891  0.003  0.000
  0.180  0.715  0.105  0.001  0.000
    occupations:
  0.994 -0.000  0.000  0.000 -0.001
 -0.000  0.997 -0.001  0.000 -0.000
  0.000 -0.001  0.996 -0.000  0.000
  0.000  0.000 -0.000  0.996  0.000
 -0.001 -0.000  0.000  0.000  0.995
   spin  2
    eigenvalues: 
  0.289  0.291  0.339  0.439  0.461
    eigenvectors:
  0.000  0.000  0.727  0.273  0.000
  0.361  0.639  0.000  0.000  0.000
  0.639  0.361  0.000  0.000  0.000
  0.000  0.000  0.030  0.084  0.886
  0.000  0.000  0.242  0.643  0.114
    occupations:
  0.366 -0.000  0.000 -0.015  0.042
 -0.000  0.290 -0.001 -0.000  0.000
  0.000 -0.001  0.289  0.000 -0.000
 -0.015 -0.000  0.000  0.456  0.016
  0.042  0.000 -0.000  0.016  0.417
atomic mag. moment =     3.159732
atom    5   Tr[ns(na)] (up, down, total) =   4.95090  2.01744  6.96834
   spin  1
    eigenvalues: 
  0.988  0.990  0.991  0.991  0.992
    eigenvectors:
  0.980  0.020  0.000  0.000  0.000
  0.009  0.413  0.000  0.003  0.574
  0.010  0.566  0.001  0.000  0.422
  0.000  0.000  0.857  0.141  0.003
  0.001  0.001  0.142  0.856  0.001
    occupations:
  0.988 -0.000 -0.000  0.000 -0.000
 -0.000  0.991 -0.001 -0.000 -0.000
 -0.000 -0.001  0.991  0.000 -0.000
  0.000 -0.000  0.000  0.991 -0.000
 -0.000 -0.000 -0.000 -0.000  0.991
   spin  2
    eigenvalues: 
  0.356  0.358  0.424  0.427  0.452
    eigenvectors:
  0.000  0.333  0.000  0.666  0.000
  0.667  0.000  0.000  0.000  0.332
  0.332  0.000  0.000  0.000  0.668
  0.000  0.074  0.878  0.047  0.000
  0.000  0.592  0.121  0.286  0.000
    occupations:
  0.404 -0.000  0.000 -0.011  0.030
 -0.000  0.388  0.045 -0.000 -0.000
  0.000  0.045  0.420 -0.000 -0.000
 -0.011 -0.000 -0.000  0.419  0.014
  0.030 -0.000 -0.000  0.014  0.386
atomic mag. moment =     2.933467
atom    6   Tr[ns(na)] (up, down, total) =   4.95088  2.01663  6.96751
   spin  1
    eigenvalues: 
  0.988  0.990  0.991  0.991  0.992
    eigenvectors:
  0.978  0.021  0.000  0.000  0.000
  0.004  0.249  0.001  0.000  0.745
  0.017  0.729  0.000  0.003  0.251
  0.000  0.001  0.948  0.051  0.001
  0.001  0.001  0.050  0.946  0.002
    occupations:
  0.988  0.000  0.000 -0.000 -0.000
  0.000  0.991 -0.001  0.000  0.000
  0.000 -0.001  0.990 -0.000  0.000
 -0.000  0.000 -0.000  0.991 -0.000
 -0.000  0.000  0.000 -0.000  0.991
   spin  2
    eigenvalues: 
  0.356  0.358  0.424  0.426  0.452
    eigenvectors:
  0.000  0.333  0.001  0.666  0.000
  0.666  0.000  0.000  0.000  0.334
  0.334  0.000  0.000  0.000  0.666
  0.000  0.074  0.872  0.054  0.000
  0.000  0.593  0.127  0.280  0.000
    occupations:
  0.403  0.000  0.000 -0.011  0.030
  0.000  0.388  0.045 -0.000 -0.000
  0.000  0.045  0.420 -0.000 -0.000
 -0.011 -0.000 -0.000  0.419  0.014
  0.030 -0.000 -0.000  0.014  0.386
atomic mag. moment =     2.934246
atom    7   Tr[ns(na)] (up, down, total) =   4.95060  2.01740  6.96800
   spin  1
    eigenvalues: 
  0.988  0.990  0.990  0.991  0.991
    eigenvectors:
  0.987  0.000  0.012  0.000  0.001
  0.002  0.332  0.067  0.000  0.600
  0.001  0.665  0.012  0.000  0.322
  0.000  0.000  0.124  0.865  0.011
  0.009  0.003  0.785  0.135  0.067
    occupations:
  0.988 -0.000  0.000  0.000 -0.000
 -0.000  0.991 -0.000  0.000 -0.000
  0.000 -0.000  0.991 -0.000  0.000
  0.000  0.000 -0.000  0.991  0.000
 -0.000 -0.000  0.000  0.000  0.991
   spin  2
    eigenvalues: 
  0.356  0.359  0.425  0.426  0.453
    eigenvectors:
  0.001  0.335  0.007  0.657  0.000
  0.664  0.002  0.000  0.000  0.334
  0.333  0.001  0.000  0.000  0.666
  0.000  0.073  0.917  0.009  0.000
  0.001  0.589  0.076  0.333  0.000
    occupations:
  0.403 -0.000 -0.000 -0.010  0.030
 -0.000  0.388  0.046 -0.000 -0.000
 -0.000  0.046  0.420 -0.000  0.000
 -0.010 -0.000 -0.000  0.420  0.014
  0.030 -0.000  0.000  0.014  0.386
atomic mag. moment =     2.933206
atom    8   Tr[ns(na)] (up, down, total) =   4.95163  2.01888  6.97051
   spin  1
    eigenvalues: 
  0.988  0.991  0.991  0.991  0.991
    eigenvectors:
  0.988  0.003  0.000  0.000  0.009
  0.006  0.010  0.064  0.314  0.605
  0.003  0.007  0.177  0.448  0.364
  0.000  0.113  0.666  0.209  0.012
  0.002  0.867  0.092  0.028  0.011
    occupations:
  0.988  0.000 -0.000 -0.000 -0.000
  0.000  0.991 -0.000 -0.000  0.000
 -0.000 -0.000  0.991  0.000 -0.000
 -0.000 -0.000  0.000  0.991  0.000
 -0.000  0.000 -0.000  0.000  0.991
   spin  2
    eigenvalues: 
  0.356  0.359  0.425  0.426  0.453
    eigenvectors:
  0.000  0.327  0.001  0.673  0.000
  0.667  0.001  0.000  0.000  0.333
  0.332  0.000  0.000  0.000  0.667
  0.000  0.075  0.878  0.047  0.000
  0.001  0.598  0.121  0.280  0.000
    occupations:
  0.404 -0.000 -0.000 -0.011  0.030
 -0.000  0.388  0.046  0.000 -0.000
 -0.000  0.046  0.421 -0.000  0.000
 -0.011  0.000 -0.000  0.420  0.014
  0.030 -0.000  0.000  0.014  0.386
atomic mag. moment =     2.932752
atom    9   Tr[ns(na)] (up, down, total) =   4.95061  2.04406  6.99466
   spin  1
    eigenvalues: 
  0.987  0.989  0.991  0.991  0.992
    eigenvectors:
  0.000  0.666  0.103  0.231  0.000
  0.331  0.002  0.422  0.245  0.000
  0.667  0.000  0.208  0.123  0.001
  0.001  0.036  0.032  0.044  0.887
  0.000  0.296  0.235  0.358  0.111
    occupations:
  0.990 -0.000  0.000  0.000 -0.001
 -0.000  0.990 -0.002  0.000  0.000
  0.000 -0.002  0.989  0.000  0.000
  0.000  0.000  0.000  0.992  0.000
 -0.001  0.000  0.000  0.000  0.991
   spin  2
    eigenvalues: 
  0.369  0.373  0.432  0.434  0.437
    eigenvectors:
  0.000  0.263  0.001  0.001  0.735
  0.668  0.000  0.068  0.263  0.001
  0.331  0.000  0.139  0.528  0.002
  0.000  0.082  0.694  0.191  0.033
  0.000  0.655  0.098  0.018  0.229
    occupations:
  0.420  0.000  0.000 -0.010  0.027
  0.000  0.390  0.030  0.001  0.000
  0.000  0.030  0.412  0.001  0.000
 -0.010  0.001  0.001  0.428  0.013
  0.027  0.000  0.000  0.013  0.394
atomic mag. moment =     2.906550
atom   10   Tr[ns(na)] (up, down, total) =   4.95241  2.02733  6.97974
   spin  1
    eigenvalues: 
  0.988  0.991  0.991  0.991  0.991
    eigenvectors:
  0.025  0.088  0.015  0.768  0.105
  0.480  0.052  0.444  0.008  0.016
  0.491  0.009  0.404  0.083  0.013
  0.000  0.111  0.113  0.130  0.646
  0.003  0.741  0.025  0.011  0.219
    occupations:
  0.991 -0.000 -0.000 -0.000 -0.000
 -0.000  0.990 -0.002 -0.000 -0.000
 -0.000 -0.002  0.990 -0.000 -0.000
 -0.000 -0.000 -0.000  0.991  0.000
 -0.000 -0.000 -0.000  0.000  0.991
   spin  2
    eigenvalues: 
  0.371  0.372  0.423  0.430  0.432
    eigenvectors:
  0.005  0.244  0.001  0.049  0.701
  0.648  0.015  0.336  0.000  0.000
  0.335  0.002  0.663  0.000  0.000
  0.002  0.083  0.000  0.753  0.163
  0.010  0.656  0.000  0.198  0.136
    occupations:
  0.417  0.000  0.001 -0.009  0.024
  0.000  0.388  0.025  0.000 -0.001
  0.001  0.025  0.405  0.001 -0.001
 -0.009  0.000  0.001  0.426  0.014
  0.024 -0.001 -0.001  0.014  0.391
atomic mag. moment =     2.925084
atom   11   Tr[ns(na)] (up, down, total) =   4.95256  2.02953  6.98209
   spin  1
    eigenvalues: 
  0.988  0.991  0.991  0.991  0.992
    eigenvectors:
  0.026  0.099  0.025  0.751  0.100
  0.185  0.029  0.646  0.117  0.022
  0.786  0.037  0.171  0.000  0.007
  0.003  0.082  0.027  0.038  0.850
  0.001  0.753  0.131  0.094  0.020
    occupations:
  0.991  0.000  0.000  0.000 -0.000
  0.000  0.991 -0.001 -0.000  0.000
  0.000 -0.001  0.989 -0.000  0.000
  0.000 -0.000 -0.000  0.991  0.000
 -0.000  0.000  0.000  0.000  0.991
   spin  2
    eigenvalues: 
  0.371  0.372  0.423  0.431  0.433
    eigenvectors:
  0.007  0.243  0.000  0.061  0.689
  0.659  0.011  0.329  0.000  0.001
  0.319  0.012  0.668  0.000  0.001
  0.001  0.081  0.000  0.905  0.012
  0.014  0.653  0.002  0.034  0.297
    occupations:
  0.417 -0.001 -0.001 -0.008  0.025
 -0.001  0.388  0.025  0.000  0.001
 -0.001  0.025  0.406 -0.001  0.001
 -0.008  0.000 -0.001  0.426  0.014
  0.025  0.001  0.001  0.014  0.392
atomic mag. moment =     2.923032
atom   12   Tr[ns(na)] (up, down, total) =   4.95200  2.04549  6.99749
   spin  1
    eigenvalues: 
  0.989  0.989  0.990  0.991  0.992
    eigenvectors:
  0.000  0.548  0.082  0.370  0.000
  0.334  0.007  0.476  0.182  0.001
  0.665  0.005  0.235  0.095  0.000
  0.001  0.048  0.024  0.032  0.894
  0.000  0.392  0.182  0.321  0.104
    occupations:
  0.990  0.000 -0.000  0.000 -0.001
  0.000  0.990 -0.001  0.000 -0.000
 -0.000 -0.001  0.990  0.000  0.000
  0.000  0.000  0.000  0.992  0.000
 -0.001 -0.000  0.000  0.000  0.990
   spin  2
    eigenvalues: 
  0.368  0.373  0.432  0.436  0.438
    eigenvectors:
  0.001  0.262  0.000  0.005  0.733
  0.665  0.002  0.002  0.329  0.002
  0.332  0.001  0.004  0.659  0.004
  0.000  0.082  0.885  0.008  0.025
  0.002  0.653  0.109  0.000  0.236
    occupations:
  0.421  0.000 -0.000 -0.009  0.027
  0.000  0.390  0.032 -0.000  0.000
 -0.000  0.032  0.413 -0.000 -0.000
 -0.009 -0.000 -0.000  0.427  0.013
  0.027  0.000 -0.000  0.013  0.394
atomic mag. moment =     2.906510
atom   13   Tr[ns(na)] (up, down, total) =   4.94993  2.05020  7.00013
   spin  1
    eigenvalues: 
  0.988  0.989  0.990  0.991  0.991
    eigenvectors:
  0.912  0.000  0.067  0.006  0.014
  0.031  0.322  0.139  0.012  0.497
  0.046  0.031  0.752  0.061  0.111
  0.010  0.474  0.002  0.144  0.370
  0.000  0.174  0.041  0.777  0.008
    occupations:
  0.988  0.000  0.000 -0.000  0.000
  0.000  0.990 -0.000 -0.001 -0.000
  0.000 -0.000  0.990  0.000  0.000
 -0.000 -0.001  0.000  0.990 -0.000
  0.000 -0.000  0.000 -0.000  0.991
   spin  2
    eigenvalues: 
  0.354  0.362  0.431  0.436  0.467
    eigenvectors:
  0.056  0.277  0.140  0.490  0.037
  0.573  0.131  0.006  0.008  0.283
  0.232  0.064  0.033  0.023  0.648
  0.010  0.062  0.541  0.386  0.001
  0.129  0.467  0.281  0.092  0.031
    occupations:
  0.411  0.003  0.005 -0.013  0.034
  0.003  0.388  0.050  0.001  0.007
  0.005  0.050  0.432  0.001  0.003
 -0.013  0.001  0.001  0.428  0.014
  0.034  0.007  0.003  0.014  0.390
atomic mag. moment =     2.899730
atom   14   Tr[ns(na)] (up, down, total) =   4.95001  2.05194  7.00195
   spin  1
    eigenvalues: 
  0.988  0.989  0.990  0.991  0.991
    eigenvectors:
  0.915  0.000  0.064  0.006  0.015
  0.019  0.117  0.495  0.071  0.298
  0.055  0.234  0.400  0.001  0.310
  0.005  0.636  0.011  0.070  0.277
  0.005  0.013  0.030  0.852  0.100
    occupations:
  0.988 -0.000 -0.001  0.000  0.000
 -0.000  0.990 -0.000  0.001  0.000
 -0.001 -0.000  0.990 -0.001 -0.000
  0.000  0.001 -0.001  0.990 -0.000
  0.000  0.000 -0.000 -0.000  0.991
   spin  2
    eigenvalues: 
  0.354  0.362  0.431  0.436  0.468
    eigenvectors:
  0.057  0.276  0.123  0.507  0.038
  0.497  0.132  0.021  0.014  0.336
  0.303  0.067  0.018  0.019  0.593
  0.022  0.055  0.833  0.070  0.020
  0.122  0.470  0.005  0.390  0.014
    occupations:
  0.412 -0.003 -0.004 -0.011  0.034
 -0.003  0.396  0.053  0.001 -0.000
 -0.004  0.053  0.425  0.006 -0.005
 -0.011  0.001  0.006  0.427  0.015
  0.034 -0.000 -0.005  0.015  0.392
atomic mag. moment =     2.898075
atom   15   Tr[ns(na)] (up, down, total) =   4.95209  2.00627  6.95837
   spin  1
    eigenvalues: 
  0.989  0.989  0.989  0.992  0.994
    eigenvectors:
  0.299  0.006  0.000  0.400  0.295
  0.000  0.342  0.005  0.222  0.430
  0.036  0.621  0.012  0.113  0.219
  0.061  0.026  0.876  0.031  0.006
  0.604  0.005  0.107  0.234  0.051
    occupations:
  0.991 -0.001  0.001  0.001 -0.002
 -0.001  0.992 -0.002  0.000  0.000
  0.001 -0.002  0.990  0.000 -0.000
  0.001  0.000  0.000  0.989 -0.000
 -0.002  0.000 -0.000 -0.000  0.990
   spin  2
    eigenvalues: 
  0.355  0.359  0.424  0.428  0.441
    eigenvectors:
  0.011  0.242  0.000  0.746  0.000
  0.637  0.029  0.000  0.000  0.334
  0.320  0.014  0.000  0.000  0.666
  0.003  0.079  0.889  0.028  0.000
  0.029  0.636  0.111  0.225  0.000
    occupations:
  0.410 -0.000  0.000 -0.010  0.028
 -0.000  0.384  0.040 -0.000  0.000
  0.000  0.040  0.412  0.000 -0.001
 -0.010 -0.000  0.000  0.419  0.015
  0.028  0.000 -0.001  0.015  0.381
atomic mag. moment =     2.945819
atom   16   Tr[ns(na)] (up, down, total) =   4.95181  2.01025  6.96206
   spin  1
    eigenvalues: 
  0.988  0.989  0.991  0.992  0.993
    eigenvectors:
  0.000  0.446  0.000  0.521  0.033
  0.317  0.012  0.015  0.011  0.645
  0.635  0.005  0.032  0.005  0.322
  0.043  0.059  0.850  0.048  0.000
  0.005  0.478  0.102  0.415  0.000
    occupations:
  0.990  0.000 -0.000  0.000 -0.001
  0.000  0.991 -0.002  0.000  0.000
 -0.000 -0.002  0.989  0.001  0.000
  0.000  0.000  0.001  0.991  0.000
 -0.001  0.000  0.000  0.000  0.990
   spin  2
    eigenvalues: 
  0.362  0.366  0.421  0.430  0.432
    eigenvectors:
  0.078  0.104  0.000  0.012  0.806
  0.457  0.205  0.038  0.298  0.000
  0.231  0.103  0.075  0.575  0.016
  0.026  0.066  0.788  0.089  0.032
  0.208  0.522  0.099  0.026  0.145
    occupations:
  0.420  0.003 -0.003 -0.009  0.024
  0.003  0.385  0.031  0.001  0.001
 -0.003  0.031  0.407  0.002  0.001
 -0.009  0.001  0.002  0.417  0.014
  0.024  0.001  0.001  0.014  0.382
atomic mag. moment =     2.941559
atom   17   Tr[ns(na)] (up, down, total) =   4.98044  1.86211  6.84255
   spin  1
    eigenvalues: 
  0.994  0.995  0.996  0.997  0.998
    eigenvectors:
  0.974  0.000  0.001  0.000  0.026
  0.018  0.000  0.005  0.334  0.644
  0.009  0.000  0.002  0.666  0.324
  0.000  0.890  0.109  0.000  0.001
  0.000  0.110  0.883  0.000  0.006
    occupations:
  0.994 -0.001  0.000 -0.000  0.000
 -0.001  0.997 -0.000 -0.000  0.000
  0.000 -0.000  0.997  0.000 -0.000
 -0.000 -0.000  0.000  0.996 -0.000
  0.000  0.000 -0.000 -0.000  0.996
   spin  2
    eigenvalues: 
  0.282  0.311  0.353  0.442  0.473
    eigenvectors:
  0.012  0.000  0.707  0.281  0.000
  0.632  0.332  0.000  0.033  0.003
  0.318  0.659  0.000  0.017  0.005
  0.004  0.008  0.032  0.078  0.877
  0.034  0.001  0.261  0.591  0.114
    occupations:
  0.377  0.015 -0.010 -0.012  0.035
  0.015  0.298  0.011  0.000  0.026
 -0.010  0.011  0.305  0.017 -0.012
 -0.012  0.000  0.017  0.465  0.020
  0.035  0.026 -0.012  0.020  0.417
atomic mag. moment =     3.118325
atom   18   Tr[ns(na)] (up, down, total) =   4.95899  1.94285  6.90185
   spin  1
    eigenvalues: 
  0.980  0.990  0.994  0.997  0.998
    eigenvectors:
  0.114  0.253  0.003  0.006  0.624
  0.451  0.121  0.002  0.426  0.000
  0.361  0.030  0.096  0.475  0.038
  0.005  0.083  0.822  0.085  0.004
  0.069  0.513  0.076  0.008  0.333
    occupations:
  0.994 -0.003 -0.003 -0.001 -0.004
 -0.003  0.988 -0.008  0.002 -0.001
[...]
     0.0171   0.0117   0.0092   0.0092   0.0079   0.0070   0.0017   0.0016
     0.0016   0.0014   0.0011   0.0007   0.0002   0.0002   0.0001   0.0001
     0.0000   0.0000   0.0000   0.0000   0.0000   0.0000   0.0000   0.0000
     0.0000   0.0000   0.0000   0.0000   0.0000   0.0000   0.0000   0.0000
     0.0000   0.0000   0.0000   0.0000   0.0000   0.0000   0.0000   0.0000
     0.0000   0.0000   0.0000   0.0000   0.0000   0.0000   0.0000   0.0000
     0.0000   0.0000

     the Fermi energy is     7.3085 ev

!    total energy              =   -6629.00572242 Ry
     Harris-Foulkes estimate   =   -6629.00572242 Ry
     estimated scf accuracy    <          9.7E-09 Ry

     total all-electron energy =    -51063.783316 Ry

     The total energy is the sum of the following terms:

     one-electron contribution =  -29655.02210243 Ry
     hartree contribution      =   14914.79163197 Ry
     xc contribution           =    -705.32131354 Ry
     ewald contribution        =   10348.93897621 Ry
     Hubbard energy            =       0.00000000 Ry
     one-center paw contrib.   =   -1532.52193822 Ry
     smearing contrib. (-TS)   =       0.12902359 Ry

     total magnetization       =    46.78 Bohr mag/cell
     absolute magnetization    =    48.99 Bohr mag/cell

     convergence has been achieved in  28 iterations

     Forces acting on atoms (Ry/au):


     negative rho (up, down):  0.402E-04 0.479E-03
     atom    1 type  1   force =    -0.00001161    0.00000662    0.00169943
     atom    2 type  1   force =     0.00017037    0.00013244    0.00249746
     atom    3 type  1   force =    -0.00006512   -0.00020442    0.00249566
     atom    4 type  1   force =    -0.00002168    0.00001368    0.00168750
     atom    5 type  1   force =     0.00000056   -0.00015951    0.00259438
     atom    6 type  1   force =     0.00015526    0.00005540    0.00259379
     atom    7 type  1   force =     0.00002453   -0.00001943    0.00147441
     atom    8 type  1   force =     0.00004775   -0.00002689   -0.00062354
     atom    9 type  1   force =    -0.00005471    0.00001470   -0.00371145
     atom   10 type  1   force =     0.00114815    0.00230366   -0.00375750
     atom   11 type  1   force =    -0.00182375   -0.00189203   -0.00373603
     atom   12 type  1   force =     0.00045583   -0.00037152   -0.00332314
     atom   13 type  1   force =     0.00001856   -0.00002208   -0.00004269
     atom   14 type  1   force =    -0.00003078    0.00004450    0.00002686
     atom   15 type  1   force =     0.00004453    0.00009851    0.00001150
     atom   16 type  1   force =    -0.00001068   -0.00006177    0.00001746
     atom   17 type  1   force =    -0.00002728    0.00005342    0.00001300
     atom   18 type  1   force =     0.00001768   -0.00001403   -0.00001313
     atom   19 type  1   force =     0.00002255    0.00003844   -0.00001337
     atom   20 type  1   force =     0.00003264   -0.00001114    0.00009044
     atom   21 type  2   force =    -0.00000957    0.00005761    0.00000058
     atom   22 type  3   force =    -0.00006481   -0.00003135    0.00001350
     atom   23 type  3   force =    -0.00001844   -0.00000481    0.00000489
     The non-local contrib.  to forces
     atom    1 type  1   force =     0.00007730   -0.00004943   -0.19214784
     atom    2 type  1   force =    -0.00044197   -0.00039910   -0.19284831
     atom    3 type  1   force =     0.00022975    0.00055310   -0.19284252
     atom    4 type  1   force =     0.00019405   -0.00013892   -0.19284376
     atom    5 type  1   force =     0.00013439    0.00049416   -0.02962467
     atom    6 type  1   force =    -0.00041635   -0.00027707   -0.02962300
     atom    7 type  1   force =     0.00047357   -0.00032586   -0.02985380
     atom    8 type  1   force =     0.00008564   -0.00005425   -0.02786549
     atom    9 type  1   force =     0.00168418   -0.00117800    0.00264902
     atom   10 type  1   force =    -0.00125361    0.00119467   -0.00433518
     atom   11 type  1   force =    -0.00152029    0.00082370   -0.00438396
     atom   12 type  1   force =     0.00149994   -0.00100281    0.00688049
     atom   13 type  1   force =    -0.01089914   -0.01034198    0.03410475
     atom   14 type  1   force =     0.00615320    0.01366211    0.03412144
     atom   15 type  1   force =     0.00308035   -0.00221725    0.01448467
     atom   16 type  1   force =     0.00493594   -0.00351368    0.01613097
     atom   17 type  1   force =    -0.10161587    0.07181859    0.31369933
     atom   18 type  1   force =    -0.07776701   -0.06628088    0.20115688
     atom   19 type  1   force =     0.03672393    0.09569873    0.20148392
     atom   20 type  1   force =     0.11080989   -0.07840406    0.23579029
     atom   21 type  2   force =    -0.08587016    0.06481852    1.04810588
     atom   22 type  3   force =     0.00158494   -0.00134164   -0.10742642
     atom   23 type  3   force =     0.00164802   -0.00116031   -0.01946335
     The ionic contribution  to forces
     atom    1 type  1   force =    -0.00024654    0.00002230 -324.60726064
     atom    2 type  1   force =    -0.00013334   -0.00015535 -324.60661149
     atom    3 type  1   force =     0.00030252    0.00010084 -324.60685431
     atom    4 type  1   force =     0.00006795    0.00003189 -324.60812805
     atom    5 type  1   force =    -0.00376601   -0.00641372 -168.17925180
     atom    6 type  1   force =     0.00505406    0.00556067 -168.17964762
     atom    7 type  1   force =    -0.00498705    0.00325514 -168.16117871
     atom    8 type  1   force =     0.00394746   -0.00252871 -168.14792633
     atom    9 type  1   force =    -0.02929351    0.02182607   -9.55155283
     atom   10 type  1   force =    -0.06385773   -0.05853226   -9.35981977
     atom   11 type  1   force =     0.02996013    0.07833847   -9.35211503
     atom   12 type  1   force =     0.05031786   -0.04032289   -9.81977083
     atom   13 type  1   force =     0.09907656    0.11087580  149.15825830
     atom   14 type  1   force =    -0.08619198   -0.12072423  149.14728058
     atom   15 type  1   force =    -0.09695238    0.08618884  149.67834886
     atom   16 type  1   force =     0.06976807   -0.06333125  151.49612949
     atom   17 type  1   force =    -0.45362879    0.32496116  307.50547525
     atom   18 type  1   force =     2.04179977    1.20791399  307.37194932
     atom   19 type  1   force =    -0.46005088   -2.32049235  307.37868895
     atom   20 type  1   force =    -1.69644386    1.19734726  306.92305857
     atom   21 type  2   force =     0.76806672   -0.55233505  133.86963049
     atom   22 type  3   force =    -0.02175346    0.02194116   22.78703680
     atom   23 type  3   force =    -0.15105557    0.10647222   23.86426081
     The local contribution  to forces
     atom    1 type  1   force =     0.00011873    0.00006369  324.80954406
     atom    2 type  1   force =     0.00068712    0.00066935  324.81048757
     atom    3 type  1   force =    -0.00060210   -0.00079864  324.81072203
     atom    4 type  1   force =    -0.00020874    0.00006842  324.81119850
     atom    5 type  1   force =     0.00365860    0.00580901  168.21301824
     atom    6 type  1   force =    -0.00452115   -0.00527091  168.21341116
     atom    7 type  1   force =     0.00456512   -0.00296663  168.19398978
     atom    8 type  1   force =    -0.00398282    0.00255470  168.17658650
     atom    9 type  1   force =     0.02762999   -0.02068440    9.54513635
     atom   10 type  1   force =     0.06637433    0.05968731    9.36053608
     atom   11 type  1   force =    -0.03026595   -0.08117266    9.35289911
     atom   12 type  1   force =    -0.05147602    0.04103983    9.80968692
     atom   13 type  1   force =    -0.08821929   -0.10092225 -149.19474071
     atom   14 type  1   force =     0.08034028    0.10728238 -149.18371614
     atom   15 type  1   force =     0.09419801   -0.08408339 -149.69496920
     atom   16 type  1   force =    -0.07506036    0.06702900 -151.51384901
     atom   17 type  1   force =     0.55722075   -0.39814503 -307.82763157
     atom   18 type  1   force =    -1.95886512   -1.13505523 -307.58677587
     atom   19 type  1   force =     0.41885403    2.21777798 -307.59383716
     atom   20 type  1   force =     1.58238216   -1.11663413 -307.16902205
     atom   21 type  2   force =    -0.68312004    0.48826037 -134.90757075
     atom   22 type  3   force =     0.02010343   -0.02063079  -22.67961927
     atom   23 type  3   force =     0.14939100   -0.10531818  -23.84480901
     The core correction contribution to forces
     atom    1 type  1   force =     0.00004083   -0.00003055   -0.00856715
     atom    2 type  1   force =     0.00005965    0.00001901   -0.00865042
     atom    3 type  1   force =     0.00000333   -0.00006110   -0.00864994
     atom    4 type  1   force =    -0.00007739    0.00005365   -0.00867168
     atom    5 type  1   force =    -0.00002777   -0.00005022   -0.00174523
     atom    6 type  1   force =     0.00003937    0.00004389   -0.00174424
     atom    7 type  1   force =    -0.00002881    0.00001878   -0.00169408
     atom    8 type  1   force =    -0.00000231    0.00000133   -0.00163006
     atom    9 type  1   force =    -0.00006962    0.00004708   -0.00005919
     atom   10 type  1   force =    -0.00010657   -0.00003424   -0.00023471
     atom   11 type  1   force =    -0.00000576    0.00010630   -0.00023245
     atom   12 type  1   force =     0.00010741   -0.00008125   -0.00023194
     atom   13 type  1   force =     0.00005647    0.00035927    0.00228645
     atom   14 type  1   force =    -0.00032591   -0.00017010    0.00229202
     atom   15 type  1   force =    -0.00028546    0.00021273    0.00207451
     atom   16 type  1   force =     0.00034730   -0.00024678    0.00157010
     atom   17 type  1   force =    -0.00200441    0.00141958    0.00852803
     atom   18 type  1   force =    -0.00517093   -0.00660156    0.01369834
     atom   19 type  1   force =     0.00449705    0.00707708    0.01369261
     atom   20 type  1   force =     0.00329917   -0.00233139    0.01033390
     atom   21 type  2   force =     0.00091101   -0.00068414   -0.01013635
     atom   22 type  3   force =     0.00000000    0.00000000    0.00000000
     atom   23 type  3   force =     0.00000000    0.00000000    0.00000000
     The Hubbard contrib.    to forces
     atom    1 type  1   force =     0.00000000   -0.00000000   -0.00000000
     atom    2 type  1   force =     0.00000000    0.00000000   -0.00000000
     atom    3 type  1   force =    -0.00000000   -0.00000000   -0.00000000
     atom    4 type  1   force =     0.00000000   -0.00000000   -0.00000000
     atom    5 type  1   force =     0.00000000   -0.00000000    0.00000000
     atom    6 type  1   force =     0.00000000   -0.00000000    0.00000000
     atom    7 type  1   force =     0.00000000   -0.00000000    0.00000000
     atom    8 type  1   force =    -0.00000000    0.00000000   -0.00000000
     atom    9 type  1   force =    -0.00000000    0.00000000    0.00000000
     atom   10 type  1   force =     0.00000000    0.00000000    0.00000000
     atom   11 type  1   force =    -0.00000000   -0.00000000    0.00000000
     atom   12 type  1   force =    -0.00000000    0.00000000    0.00000000
     atom   13 type  1   force =    -0.00000000   -0.00000000   -0.00000000
     atom   14 type  1   force =     0.00000000    0.00000000   -0.00000000
     atom   15 type  1   force =    -0.00000000    0.00000000    0.00000000
     atom   16 type  1   force =    -0.00000000    0.00000000    0.00000000
     atom   17 type  1   force =    -0.00000000    0.00000000    0.00000000
     atom   18 type  1   force =     0.00000000    0.00000000    0.00000000
     atom   19 type  1   force =    -0.00000000   -0.00000000    0.00000000
     atom   20 type  1   force =    -0.00000000    0.00000000   -0.00000000
     atom   21 type  2   force =    -0.00000000    0.00000000    0.00000000
     atom   22 type  3   force =     0.00000000   -0.00000000   -0.00000000
     atom   23 type  3   force =     0.00000000   -0.00000000   -0.00000000
     The SCF correction term to forces
     atom    1 type  1   force =     0.00000000    0.00000000    0.00000000
     atom    2 type  1   force =     0.00000000    0.00000000    0.00000000
     atom    3 type  1   force =     0.00000000    0.00000000    0.00000000
     atom    4 type  1   force =     0.00000000    0.00000000    0.00000000
     atom    5 type  1   force =     0.00000000    0.00000000    0.00000000
     atom    6 type  1   force =     0.00000000    0.00000000    0.00000000
     atom    7 type  1   force =     0.00000000    0.00000000    0.00000000
     atom    8 type  1   force =     0.00000000    0.00000000    0.00000000
     atom    9 type  1   force =     0.00000000    0.00000000    0.00000000
     atom   10 type  1   force =     0.00000000    0.00000000    0.00000000
     atom   11 type  1   force =     0.00000000    0.00000000    0.00000000
     atom   12 type  1   force =     0.00000000    0.00000000    0.00000000
     atom   13 type  1   force =     0.00000370    0.00000716    0.00002500
     atom   14 type  1   force =    -0.00000664   -0.00000558    0.00002545
     atom   15 type  1   force =     0.00000376   -0.00000235    0.00004914
     atom   16 type  1   force =    -0.00000190    0.00000102    0.00001239
     atom   17 type  1   force =     0.00000080   -0.00000080   -0.00008155
     atom   18 type  1   force =     0.00002072    0.00000971   -0.00006532
     atom   19 type  1   force =    -0.00000183   -0.00002292   -0.00006521
     atom   20 type  1   force =    -0.00001498    0.00001125   -0.00009378
     atom   21 type  2   force =     0.00000264   -0.00000202   -0.00005221
     atom   22 type  3   force =     0.00000002    0.00000000   -0.00000113
     atom   23 type  3   force =    -0.00000215    0.00000153   -0.00000708

     Total force =     0.000218     Total SCF correction =     0.000179
     SCF correction compared to forces is large: reduce conv_thr to get better values


     entering subroutine stress ...


     negative rho (up, down):  0.402E-04 0.479E-03
          total   stress  (Ry/bohr**3)                   (kbar)     P=   -5.97
  -0.00003401  -0.00003477  -0.00000051         -5.00     -5.11     -0.08
  -0.00003477  -0.00005856   0.00000050         -5.11     -8.61      0.07
  -0.00000051   0.00000050  -0.00002922         -0.08      0.07     -4.30

     kinetic stress (kbar)  40432.76    -11.24      2.04
                              -11.24  40424.81     -1.54
                                2.04     -1.54  40191.31

     local   stress (kbar)**********    497.75   -150.40
                              497.75**********    102.94
                             -150.40    102.941317652.36

     nonloc. stress (kbar) -30993.22      7.47      0.26
                                7.47 -30987.93     -0.25
                                0.26     -0.25 -30858.14

     hartree stress (kbar) 657168.27   -188.77     62.59
                             -188.77 657034.75    -43.06
                               62.59    -43.06-615315.75

     exc-cor stress (kbar)  -1379.92     -0.44      0.10
                               -0.44  -1380.23     -0.06
                                0.10     -0.06  -1387.70

     corecor stress (kbar)  -8194.04      0.26     -0.09
                                0.26  -8193.86      0.06
                               -0.09      0.06  -8192.26

     ewald   stress (kbar) 593625.51   -310.15     85.44
                             -310.15 593406.11    -58.02
                               85.44    -58.02-702094.12

     hubbard stress (kbar)     -0.00      0.00      0.00
                                0.00     -0.00     -0.00
                                0.00     -0.00     -0.00

     london  stress (kbar)      0.00      0.00      0.00
                                0.00      0.00      0.00
                                0.00      0.00      0.00

     dft-nl  stress (kbar)      0.00      0.00      0.00
                                0.00      0.00      0.00
                                0.00      0.00      0.00



     Writing output data file Fe_110_2x2_SB_HO_LB_H.save
 
     init_run     :     36.32s CPU     39.96s WALL (       1 calls)
     electrons    :   1700.53s CPU   1823.56s WALL (       1 calls)
     forces       :     62.78s CPU     63.79s WALL (       1 calls)
     stress       :    306.16s CPU    314.27s WALL (       1 calls)

     Called by init_run:
     wfcinit      :     21.29s CPU     24.20s WALL (       1 calls)
     potinit      :      3.06s CPU      3.16s WALL (       1 calls)

     Called by electrons:
     c_bands      :    875.00s CPU    923.75s WALL (      28 calls)
     sum_band     :    445.19s CPU    464.08s WALL (      28 calls)
     v_of_rho     :     17.89s CPU     18.33s WALL (      29 calls)
     v_h          :      0.87s CPU      0.88s WALL (      29 calls)
     v_xc         :     18.20s CPU     18.65s WALL (      31 calls)
     newd         :    257.44s CPU    258.39s WALL (      29 calls)
     mix_rho      :     94.62s CPU     94.95s WALL (      28 calls)

     Called by c_bands:
     init_us_2    :      5.50s CPU      5.55s WALL (     350 calls)
     cegterg      :    818.89s CPU    837.67s WALL (     140 calls)

     Called by sum_band:
     sum_band:bec :      0.29s CPU      0.30s WALL (     140 calls)
     addusdens    :    293.90s CPU    294.52s WALL (      28 calls)

     Called by *egterg:
     h_psi        :    588.74s CPU    590.32s WALL (     642 calls)
     s_psi        :     46.57s CPU     46.61s WALL (     697 calls)
     g_psi        :      1.12s CPU      1.14s WALL (     497 calls)
     cdiaghg      :     74.50s CPU     74.88s WALL (     637 calls)
     cegterg:over :     47.43s CPU     47.48s WALL (     497 calls)
     cegterg:upda :     36.70s CPU     36.85s WALL (     497 calls)
     cegterg:last :     21.32s CPU     21.38s WALL (     140 calls)
     cdiaghg:chol :      3.69s CPU      3.61s WALL (     637 calls)
     cdiaghg:inve :      1.25s CPU      1.26s WALL (     637 calls)
     cdiaghg:para :     14.60s CPU     14.65s WALL (    1274 calls)

     Called by h_psi:
     h_psi:vloc   :    385.92s CPU    387.32s WALL (     642 calls)
     h_psi:vnl    :     83.30s CPU     83.35s WALL (     642 calls)
     add_vuspsi   :     40.13s CPU     40.20s WALL (     642 calls)
     vhpsi        :    117.46s CPU    117.58s WALL (     642 calls)

     General routines
     calbec       :    136.74s CPU    136.97s WALL (    2759 calls)
     fft          :     19.25s CPU     19.55s WALL (     933 calls)
     ffts         :     44.83s CPU     44.74s WALL (   10817 calls)
     fftw         :    397.66s CPU    398.82s WALL (   74762 calls)
     interpolate  :      3.14s CPU      3.18s WALL (     114 calls)
     davcio       :     10.40s CPU     67.95s WALL (    1025 calls)
 
     Parallel routines
     fft_scatter  :    198.10s CPU    199.22s WALL (   86512 calls)
     ALLTOALL     :     10.46s CPU     10.49s WALL (   74466 calls)
     Hubbard U routines
     new_ns       :     15.53s CPU     28.10s WALL (      28 calls)
     vhpsi        :    117.46s CPU    117.58s WALL (     642 calls)
     force_hub    :     17.35s CPU     18.07s WALL (       1 calls)
     stres_hub    :    166.61s CPU    174.48s WALL (       1 calls)
 
     PAW routines
     PAW_pot      :      7.20s CPU      7.25s WALL (      29 calls)
     PAW_ddot     :      6.17s CPU      6.12s WALL (     976 calls)
 
     PWSCF        : 35m18.65s CPU    37m51.44s WALL

 
   This run was terminated on:  11:49:36   4Aug2015            

=------------------------------------------------------------------------------=
   JOB DONE.
=------------------------------------------------------------------------------=
Application 16678892 resources: utime ~105315s, stime ~3442s, Rss ~524888, inblocks ~4990708863, outblocks ~804563671
