
     Program PWSCF v.5.0.2 (svn rev. 9656) starts on  4Aug2015 at 10:13:51 

     This program is part of the open-source Quantum ESPRESSO suite
     for quantum simulation of materials; please cite
         "P. Giannozzi et al., J. Phys.:Condens. Matter 21 395502 (2009);
          URL http://www.quantum-espresso.org", 
     in publications or presentations arising from this work. More details at
     http://www.quantum-espresso.org/quote.php

     Parallel version (MPI & OpenMP), running on      48 processor cores
     Number of MPI processes:                48
     Threads/MPI process:                     1
     K-points division:     npool     =       4
     R & G space division:  proc/nbgrp/npool/nimage =      12
     wavefunctions fft division:  fft/group =       2

     Current dimensions of program PWSCF are:
     Max number of different atomic species (ntypx) = 10
     Max number of k-points (npk) =  40000
     Max angular momentum in pseudopotentials (lmaxx) =  3
     Reading input from Fe_110_2x2_SB_HS_LB_H_scf.in
Warning: card  &IONS ignored
Warning: card  / ignored
Warning: card  &CELL ignored
Warning: card    PRESS=0.0 ignored
Warning: card    PRESS_CONV_THR=0.1 ignored
Warning: card  / ignored

     IMPORTANT: XC functional enforced from input :
     Exchange-correlation      = PBE ( 1 4 3 4 0)
     EXX-fraction              =        0.00
     Any further DFT definition will be discarded
     Please, verify this is what you really want

               file Fe.pbe-spn-kjpaw_psl.0.2.1.UPF: wavefunction(s)  3D renormalized
               file S.pbe-n-kjpaw_psl.0.1.UPF: wavefunction(s)  3P renormalized
               file H.pbe-kjpaw_psl.0.1.upf: wavefunction(s)  1S renormalized

     Subspace diagonalization in iterative solution of the eigenvalue problem:
     scalapack distributed-memory algorithm (size of sub-group:  2*  2 procs)


   Task Groups are in USE
   groups and procs/group :     2    6
 
     Parallelization info
     --------------------
     sticks:   dense  smooth     PW     G-vecs:    dense   smooth      PW
     Min         429     203     57                99954    32713    4877
     Max         431     204     58                99959    32748    4892
     Sum        5161    2447    693              1199489   392779   58615
 


     bravais-lattice index     =            0
     lattice parameter (alat)  =       1.8897  a.u.
     unit-cell volume          =    3139.3349 (a.u.)^3
     number of atoms/cell      =           23
     number of atomic types    =            3
     number of electrons       =       328.00
     number of Kohn-Sham states=          202
     kinetic-energy cutoff     =      95.0000  Ry
     charge density cutoff     =     800.0000  Ry
     convergence threshold     =      1.0E-08
     mixing beta               =       0.5000
     number of iterations used =            8  local-TF  mixing
     Exchange-correlation      = PBE ( 1 4 3 4 0)
     EXX-fraction              =        0.00

     celldm(1)=   1.889727  celldm(2)=   0.000000  celldm(3)=   0.000000
     celldm(4)=   0.000000  celldm(5)=   0.000000  celldm(6)=   0.000000

     crystal axes: (cart. coord. in units of alat)
               a(1) = (   4.906044   0.000000   0.000000 )  
               a(2) = (  -1.635348   4.625463   0.000000 )  
               a(3) = (   0.000000   0.000000  20.500000 )  

     reciprocal axes: (cart. coord. in units 2 pi/alat)
               b(1) = (  0.203830  0.072065  0.000000 )  
               b(2) = (  0.000000  0.216195  0.000000 )  
               b(3) = (  0.000000  0.000000  0.048780 )  


     PseudoPot. # 1 for Fe read from file:
     /work/e05/e05/ablar/QE_PSEUDO/Fe.pbe-spn-kjpaw_psl.0.2.1.UPF
     MD5 check sum: a0a08122d52b112de96d1da1d7dd020f
     Pseudo is Projector augmented-wave + core cor, Zval = 16.0
     Generated using "atomic" code by A. Dal Corso  v.5.0.2 svn rev. 9415
     Shape of augmentation charge: PSQ
     Using radial grid of 1191 points,  6 beta functions with: 
                l(1) =   0
                l(2) =   0
                l(3) =   1
                l(4) =   1
                l(5) =   2
                l(6) =   2
     Q(r) pseudized with 0 coefficients 


     PseudoPot. # 2 for  S read from file:
     /work/e05/e05/ablar/QE_PSEUDO/S.pbe-n-kjpaw_psl.0.1.UPF
     MD5 check sum: 4d0aa7498161b95d6b336a838fdb998f
     Pseudo is Projector augmented-wave + core cor, Zval =  6.0
     Generated using "atomic" code by A. Dal Corso  v.5.0.2 svn rev. 9415
     Shape of augmentation charge: PSQ
     Using radial grid of 1151 points,  4 beta functions with: 
                l(1) =   0
                l(2) =   0
                l(3) =   1
                l(4) =   1
     Q(r) pseudized with 0 coefficients 


     PseudoPot. # 3 for  H read from file:
     /work/e05/e05/ablar/QE_PSEUDO/H.pbe-kjpaw_psl.0.1.upf
     MD5 check sum: 94e484f906d9e9773b2f6e52662335b2
     Pseudo is Projector augmented-wave, Zval =  1.0
     Generated using "atomic" code by A. Dal Corso  v.5.0.99 svn rev. 10869
     Shape of augmentation charge: PSQ
     Using radial grid of  929 points,  2 beta functions with: 
                l(1) =   0
                l(2) =   0
     Q(r) pseudized with 0 coefficients 


     atomic species   valence    mass     pseudopotential
        Fe            16.00    55.85000     Fe( 1.00)
        S              6.00    32.00000      S( 1.00)
        H              1.00     1.00000      H( 1.00)

     Starting magnetic structure 
     atomic species   magnetization
        Fe           0.600
        S            0.000
        H            0.000


     Simplified LDA+U calculation (l_max = 2) with parameters (eV):
     atomic species    L          U    alpha       J0     beta
        Fe             2     0.0000   0.0000   0.0000   0.0000



     No symmetry found


                                    s                        frac. trans.

      isym =  1     identity                                     

 cryst.   s( 1) = (     1          0          0      )
                  (     0          1          0      )
                  (     0          0          1      )

 cart.    s( 1) = (  1.0000000  0.0000000  0.0000000 )
                  (  0.0000000  1.0000000  0.0000000 )
                  (  0.0000000  0.0000000  1.0000000 )


     point group C_1 (1)    
     there are  1 classes
     the character table:

       E    
A      1.00

     the symmetry operations in each class:
     E        1

   Cartesian axes

     site n.     atom                  positions (alat units)
         1           Fe  tau(   1) = (   0.0000000   0.0000000  -4.0057584  )
         2           Fe  tau(   2) = (  -0.8176697   2.3127291  -4.0057584  )
         3           Fe  tau(   3) = (   2.4530190   0.0000000  -4.0057584  )
         4           Fe  tau(   4) = (  -3.2706887   2.3127291  -4.0057584  )
         5           Fe  tau(   5) = (   0.8176697   1.1563595  -2.0028892  )
         6           Fe  tau(   6) = (  -0.8176697  -1.1563595  -2.0028892  )
         7           Fe  tau(   7) = (   1.6353494  -1.1563595  -2.0028892  )
         8           Fe  tau(   8) = (  -1.6353494   1.1563595  -2.0028892  )
         9           Fe  tau(   9) = (   0.0000000   0.0000000   0.0000000  )
        10           Fe  tau(  10) = (  -0.8176697   2.3127291   0.0000000  )
        11           Fe  tau(  11) = (   2.4530190   0.0000000   0.0000000  )
        12           Fe  tau(  12) = (  -3.2706887   2.3127291   0.0000000  )
        13           Fe  tau(  13) = (   0.8217863   1.1519845   1.9910021  )
        14           Fe  tau(  14) = (  -0.8116442  -1.1581359   1.9910190  )
        15           Fe  tau(  15) = (   1.6357719  -1.1560673   1.9877039  )
        16           Fe  tau(  16) = (  -1.6266613   1.1506829   1.9979116  )
        17           Fe  tau(  17) = (   0.0235455  -0.0159363   4.0629369  )
        18           Fe  tau(  18) = (  -0.7735053   2.3347271   3.9823849  )
        19           Fe  tau(  19) = (   2.4475251  -0.0480861   3.9826722  )
        20           Fe  tau(  20) = (  -3.2428353   2.2936694   3.9905525  )
        21           S   tau(  21) = (  -1.4066224   0.9955628   5.6346922  )
        22           H   tau(  22) = (  -0.1553326   0.1089832   5.7437777  )
        23           H   tau(  23) = (  -0.4036481   3.7545909   4.9404872  )

   Crystallographic axes

     site n.     atom                  positions (cryst. coord.)
         1           Fe  tau(   1) = (  0.0000000  0.0000000 -0.1954028  )
         2           Fe  tau(   2) = (  0.0000007  0.4999995 -0.1954028  )
         3           Fe  tau(   3) = (  0.4999994  0.0000000 -0.1954028  )
         4           Fe  tau(   4) = ( -0.4999986  0.4999995 -0.1954028  )
         5           Fe  tau(   5) = (  0.2499987  0.2499987 -0.0977019  )
         6           Fe  tau(   6) = ( -0.2499987 -0.2499987 -0.0977019  )
         7           Fe  tau(   7) = (  0.2500007 -0.2499987 -0.0977019  )
         8           Fe  tau(   8) = ( -0.2500007  0.2499987 -0.0977019  )
         9           Fe  tau(   9) = (  0.0000000  0.0000000  0.0000000  )
        10           Fe  tau(  10) = (  0.0000007  0.4999995  0.0000000  )
        11           Fe  tau(  11) = (  0.4999994  0.0000000  0.0000000  )
        12           Fe  tau(  12) = ( -0.4999986  0.4999995  0.0000000  )
        13           Fe  tau(  13) = (  0.2505225  0.2490528  0.0971221  )
        14           Fe  tau(  14) = ( -0.2488985 -0.2503827  0.0971229  )
        15           Fe  tau(  15) = (  0.2501079 -0.2499355  0.0969612  )
        16           Fe  tau(  16) = ( -0.2486389  0.2487714  0.0974591  )
        17           Fe  tau(  17) = (  0.0036508 -0.0034453  0.1981920  )
        18           Fe  tau(  18) = (  0.0105880  0.5047553  0.1942627  )
        19           Fe  tau(  19) = (  0.4954142 -0.0103959  0.1942767  )
        20           Fe  tau(  20) = ( -0.4956948  0.4958789  0.1946611  )
        21           S   tau(  21) = ( -0.2149670  0.2152353  0.2748630  )
        22           H   tau(  22) = ( -0.0238076  0.0235616  0.2801843  )
        23           H   tau(  23) = (  0.1882984  0.8117222  0.2409994  )

     number of k points=    20  Marzari-Vanderbilt smearing, width (Ry)=  0.0400
                       cart. coord. in units 2pi/alat
        k(    1) = (   0.0000000   0.0000000   0.0000000), wk =   0.0625000
        k(    2) = (   0.0000000   0.0540486   0.0000000), wk =   0.1250000
        k(    3) = (   0.0000000  -0.1080973   0.0000000), wk =   0.0625000
        k(    4) = (   0.0509576   0.0180162   0.0000000), wk =   0.1250000
        k(    5) = (   0.0509576   0.0720649   0.0000000), wk =   0.1250000
        k(    6) = (   0.0509576  -0.0900811   0.0000000), wk =   0.1250000
        k(    7) = (   0.0509576  -0.0360324   0.0000000), wk =   0.1250000
        k(    8) = (  -0.1019151  -0.0360324   0.0000000), wk =   0.0625000
        k(    9) = (  -0.1019151   0.0180162   0.0000000), wk =   0.1250000
        k(   10) = (  -0.1019151  -0.1441297   0.0000000), wk =   0.0625000
        k(   11) = (   0.0000000   0.0000000   0.0000000), wk =   0.0625000
        k(   12) = (   0.0000000   0.0540486   0.0000000), wk =   0.1250000
        k(   13) = (   0.0000000  -0.1080973   0.0000000), wk =   0.0625000
        k(   14) = (   0.0509576   0.0180162   0.0000000), wk =   0.1250000
        k(   15) = (   0.0509576   0.0720649   0.0000000), wk =   0.1250000
        k(   16) = (   0.0509576  -0.0900811   0.0000000), wk =   0.1250000
        k(   17) = (   0.0509576  -0.0360324   0.0000000), wk =   0.1250000
        k(   18) = (  -0.1019151  -0.0360324   0.0000000), wk =   0.0625000
        k(   19) = (  -0.1019151   0.0180162   0.0000000), wk =   0.1250000
        k(   20) = (  -0.1019151  -0.1441297   0.0000000), wk =   0.0625000

                       cryst. coord.
        k(    1) = (   0.0000000   0.0000000   0.0000000), wk =   0.0625000
        k(    2) = (   0.0000000   0.2500000   0.0000000), wk =   0.1250000
        k(    3) = (   0.0000000  -0.5000000   0.0000000), wk =   0.0625000
        k(    4) = (   0.2500000   0.0000000   0.0000000), wk =   0.1250000
        k(    5) = (   0.2500000   0.2500000   0.0000000), wk =   0.1250000
        k(    6) = (   0.2500000  -0.5000000   0.0000000), wk =   0.1250000
        k(    7) = (   0.2500000  -0.2500000   0.0000000), wk =   0.1250000
        k(    8) = (  -0.5000000  -0.0000000   0.0000000), wk =   0.0625000
        k(    9) = (  -0.5000000   0.2500000   0.0000000), wk =   0.1250000
        k(   10) = (  -0.5000000  -0.5000000   0.0000000), wk =   0.0625000
        k(   11) = (   0.0000000   0.0000000   0.0000000), wk =   0.0625000
        k(   12) = (   0.0000000   0.2500000   0.0000000), wk =   0.1250000
        k(   13) = (   0.0000000  -0.5000000   0.0000000), wk =   0.0625000
        k(   14) = (   0.2500000   0.0000000   0.0000000), wk =   0.1250000
        k(   15) = (   0.2500000   0.2500000   0.0000000), wk =   0.1250000
        k(   16) = (   0.2500000  -0.5000000   0.0000000), wk =   0.1250000
        k(   17) = (   0.2500000  -0.2500000   0.0000000), wk =   0.1250000
        k(   18) = (  -0.5000000  -0.0000000   0.0000000), wk =   0.0625000
        k(   19) = (  -0.5000000   0.2500000   0.0000000), wk =   0.1250000
        k(   20) = (  -0.5000000  -0.5000000   0.0000000), wk =   0.0625000

     Dense  grid:  1199489 G-vectors     FFT dimensions: (  90,  90, 360)

     Smooth grid:   392779 G-vectors     FFT dimensions: (  60,  60, 243)

     Largest allocated arrays     est. size (Mb)     dimensions
        Kohn-Sham Wavefunctions        13.04 Mb     (   4230,  202)
        Atomic wavefunctions           17.17 Mb     (   4230,  266)
        NL pseudopotentials            24.01 Mb     (   4230,  372)
        Each V/rho on FFT grid          7.42 Mb     ( 243000,   2)
        Each G-vector array             0.76 Mb     (  99959)
        G-vector shells                 0.31 Mb     (  40422)
     Largest temporary arrays     est. size (Mb)     dimensions
        Auxiliary wavefunctions        52.15 Mb     (   4230,  808)
        Each subspace H/S matrix        2.49 Mb     ( 404, 404)
        Each <psi_i|beta_j> matrix      1.15 Mb     (    372,  202)
        Arrays for rho mixing          29.66 Mb     ( 243000,   8)

     Check: negative/imaginary core charge=   -0.000012    0.000000

     Initial potential from superposition of free atoms

     starting charge  327.99118, renormalised to  328.00000

     negative rho (up, down):  0.207E-04 0.407E-05
 --- in v_hubbard ---
Hubbard energy    0.0000
 -------
     Number of +U iterations with fixed ns =  0
     Starting occupations:
 --- enter write_ns ---
 LDA+U parameters:
U( 1)     =  0.00000000
alpha( 1) =  0.00000000
atom    1   Tr[ns(na)] (up, down, total) =   5.00000  1.00000  6.00000
   spin  1
    eigenvalues: 
  1.000  1.000  1.000  1.000  1.000
    eigenvectors:
  1.000  0.000  0.000  0.000  0.000
  0.000  1.000  0.000  0.000  0.000
  0.000  0.000  1.000  0.000  0.000
  0.000  0.000  0.000  1.000  0.000
  0.000  0.000  0.000  0.000  1.000
    occupations:
  1.000  0.000  0.000  0.000  0.000
  0.000  1.000  0.000  0.000  0.000
  0.000  0.000  1.000  0.000  0.000
  0.000  0.000  0.000  1.000  0.000
  0.000  0.000  0.000  0.000  1.000
   spin  2
    eigenvalues: 
  0.200  0.200  0.200  0.200  0.200
    eigenvectors:
  1.000  0.000  0.000  0.000  0.000
  0.000  1.000  0.000  0.000  0.000
  0.000  0.000  1.000  0.000  0.000
  0.000  0.000  0.000  1.000  0.000
  0.000  0.000  0.000  0.000  1.000
    occupations:
  0.200  0.000  0.000  0.000  0.000
  0.000  0.200  0.000  0.000  0.000
  0.000  0.000  0.200  0.000  0.000
  0.000  0.000  0.000  0.200  0.000
  0.000  0.000  0.000  0.000  0.200
atomic mag. moment =     4.000000
atom    2   Tr[ns(na)] (up, down, total) =   5.00000  1.00000  6.00000
   spin  1
    eigenvalues: 
  1.000  1.000  1.000  1.000  1.000
    eigenvectors:
  1.000  0.000  0.000  0.000  0.000
  0.000  1.000  0.000  0.000  0.000
  0.000  0.000  1.000  0.000  0.000
  0.000  0.000  0.000  1.000  0.000
  0.000  0.000  0.000  0.000  1.000
    occupations:
  1.000  0.000  0.000  0.000  0.000
  0.000  1.000  0.000  0.000  0.000
  0.000  0.000  1.000  0.000  0.000
  0.000  0.000  0.000  1.000  0.000
  0.000  0.000  0.000  0.000  1.000
   spin  2
    eigenvalues: 
  0.200  0.200  0.200  0.200  0.200
    eigenvectors:
  1.000  0.000  0.000  0.000  0.000
  0.000  1.000  0.000  0.000  0.000
  0.000  0.000  1.000  0.000  0.000
  0.000  0.000  0.000  1.000  0.000
  0.000  0.000  0.000  0.000  1.000
    occupations:
  0.200  0.000  0.000  0.000  0.000
  0.000  0.200  0.000  0.000  0.000
  0.000  0.000  0.200  0.000  0.000
  0.000  0.000  0.000  0.200  0.000
  0.000  0.000  0.000  0.000  0.200
atomic mag. moment =     4.000000
atom    3   Tr[ns(na)] (up, down, total) =   5.00000  1.00000  6.00000
   spin  1
    eigenvalues: 
  1.000  1.000  1.000  1.000  1.000
    eigenvectors:
  1.000  0.000  0.000  0.000  0.000
  0.000  1.000  0.000  0.000  0.000
  0.000  0.000  1.000  0.000  0.000
  0.000  0.000  0.000  1.000  0.000
  0.000  0.000  0.000  0.000  1.000
    occupations:
  1.000  0.000  0.000  0.000  0.000
  0.000  1.000  0.000  0.000  0.000
  0.000  0.000  1.000  0.000  0.000
  0.000  0.000  0.000  1.000  0.000
  0.000  0.000  0.000  0.000  1.000
   spin  2
    eigenvalues: 
  0.200  0.200  0.200  0.200  0.200
    eigenvectors:
  1.000  0.000  0.000  0.000  0.000
  0.000  1.000  0.000  0.000  0.000
  0.000  0.000  1.000  0.000  0.000
  0.000  0.000  0.000  1.000  0.000
  0.000  0.000  0.000  0.000  1.000
    occupations:
  0.200  0.000  0.000  0.000  0.000
  0.000  0.200  0.000  0.000  0.000
  0.000  0.000  0.200  0.000  0.000
  0.000  0.000  0.000  0.200  0.000
  0.000  0.000  0.000  0.000  0.200
atomic mag. moment =     4.000000
atom    4   Tr[ns(na)] (up, down, total) =   5.00000  1.00000  6.00000
   spin  1
    eigenvalues: 
  1.000  1.000  1.000  1.000  1.000
    eigenvectors:
  1.000  0.000  0.000  0.000  0.000
  0.000  1.000  0.000  0.000  0.000
  0.000  0.000  1.000  0.000  0.000
  0.000  0.000  0.000  1.000  0.000
  0.000  0.000  0.000  0.000  1.000
    occupations:
  1.000  0.000  0.000  0.000  0.000
  0.000  1.000  0.000  0.000  0.000
  0.000  0.000  1.000  0.000  0.000
  0.000  0.000  0.000  1.000  0.000
  0.000  0.000  0.000  0.000  1.000
   spin  2
    eigenvalues: 
  0.200  0.200  0.200  0.200  0.200
    eigenvectors:
  1.000  0.000  0.000  0.000  0.000
  0.000  1.000  0.000  0.000  0.000
  0.000  0.000  1.000  0.000  0.000
  0.000  0.000  0.000  1.000  0.000
  0.000  0.000  0.000  0.000  1.000
    occupations:
  0.200  0.000  0.000  0.000  0.000
  0.000  0.200  0.000  0.000  0.000
  0.000  0.000  0.200  0.000  0.000
  0.000  0.000  0.000  0.200  0.000
  0.000  0.000  0.000  0.000  0.200
atomic mag. moment =     4.000000
atom    5   Tr[ns(na)] (up, down, total) =   5.00000  1.00000  6.00000
   spin  1
    eigenvalues: 
  1.000  1.000  1.000  1.000  1.000
    eigenvectors:
  1.000  0.000  0.000  0.000  0.000
  0.000  1.000  0.000  0.000  0.000
  0.000  0.000  1.000  0.000  0.000
  0.000  0.000  0.000  1.000  0.000
  0.000  0.000  0.000  0.000  1.000
    occupations:
  1.000  0.000  0.000  0.000  0.000
  0.000  1.000  0.000  0.000  0.000
  0.000  0.000  1.000  0.000  0.000
  0.000  0.000  0.000  1.000  0.000
  0.000  0.000  0.000  0.000  1.000
   spin  2
    eigenvalues: 
  0.200  0.200  0.200  0.200  0.200
    eigenvectors:
  1.000  0.000  0.000  0.000  0.000
  0.000  1.000  0.000  0.000  0.000
  0.000  0.000  1.000  0.000  0.000
  0.000  0.000  0.000  1.000  0.000
  0.000  0.000  0.000  0.000  1.000
    occupations:
  0.200  0.000  0.000  0.000  0.000
  0.000  0.200  0.000  0.000  0.000
  0.000  0.000  0.200  0.000  0.000
  0.000  0.000  0.000  0.200  0.000
  0.000  0.000  0.000  0.000  0.200
atomic mag. moment =     4.000000
atom    6   Tr[ns(na)] (up, down, total) =   5.00000  1.00000  6.00000
   spin  1
    eigenvalues: 
  1.000  1.000  1.000  1.000  1.000
    eigenvectors:
  1.000  0.000  0.000  0.000  0.000
  0.000  1.000  0.000  0.000  0.000
  0.000  0.000  1.000  0.000  0.000
  0.000  0.000  0.000  1.000  0.000
  0.000  0.000  0.000  0.000  1.000
    occupations:
  1.000  0.000  0.000  0.000  0.000
  0.000  1.000  0.000  0.000  0.000
  0.000  0.000  1.000  0.000  0.000
  0.000  0.000  0.000  1.000  0.000
  0.000  0.000  0.000  0.000  1.000
   spin  2
    eigenvalues: 
  0.200  0.200  0.200  0.200  0.200
    eigenvectors:
  1.000  0.000  0.000  0.000  0.000
  0.000  1.000  0.000  0.000  0.000
  0.000  0.000  1.000  0.000  0.000
  0.000  0.000  0.000  1.000  0.000
  0.000  0.000  0.000  0.000  1.000
    occupations:
  0.200  0.000  0.000  0.000  0.000
  0.000  0.200  0.000  0.000  0.000
  0.000  0.000  0.200  0.000  0.000
  0.000  0.000  0.000  0.200  0.000
  0.000  0.000  0.000  0.000  0.200
atomic mag. moment =     4.000000
atom    7   Tr[ns(na)] (up, down, total) =   5.00000  1.00000  6.00000
   spin  1
    eigenvalues: 
  1.000  1.000  1.000  1.000  1.000
    eigenvectors:
  1.000  0.000  0.000  0.000  0.000
  0.000  1.000  0.000  0.000  0.000
  0.000  0.000  1.000  0.000  0.000
  0.000  0.000  0.000  1.000  0.000
  0.000  0.000  0.000  0.000  1.000
    occupations:
  1.000  0.000  0.000  0.000  0.000
  0.000  1.000  0.000  0.000  0.000
  0.000  0.000  1.000  0.000  0.000
  0.000  0.000  0.000  1.000  0.000
  0.000  0.000  0.000  0.000  1.000
   spin  2
    eigenvalues: 
  0.200  0.200  0.200  0.200  0.200
    eigenvectors:
  1.000  0.000  0.000  0.000  0.000
  0.000  1.000  0.000  0.000  0.000
  0.000  0.000  1.000  0.000  0.000
  0.000  0.000  0.000  1.000  0.000
  0.000  0.000  0.000  0.000  1.000
    occupations:
  0.200  0.000  0.000  0.000  0.000
  0.000  0.200  0.000  0.000  0.000
  0.000  0.000  0.200  0.000  0.000
  0.000  0.000  0.000  0.200  0.000
  0.000  0.000  0.000  0.000  0.200
atomic mag. moment =     4.000000
atom    8   Tr[ns(na)] (up, down, total) =   5.00000  1.00000  6.00000
   spin  1
    eigenvalues: 
  1.000  1.000  1.000  1.000  1.000
    eigenvectors:
  1.000  0.000  0.000  0.000  0.000
  0.000  1.000  0.000  0.000  0.000
  0.000  0.000  1.000  0.000  0.000
  0.000  0.000  0.000  1.000  0.000
  0.000  0.000  0.000  0.000  1.000
    occupations:
  1.000  0.000  0.000  0.000  0.000
  0.000  1.000  0.000  0.000  0.000
  0.000  0.000  1.000  0.000  0.000
  0.000  0.000  0.000  1.000  0.000
  0.000  0.000  0.000  0.000  1.000
   spin  2
    eigenvalues: 
  0.200  0.200  0.200  0.200  0.200
    eigenvectors:
  1.000  0.000  0.000  0.000  0.000
  0.000  1.000  0.000  0.000  0.000
  0.000  0.000  1.000  0.000  0.000
  0.000  0.000  0.000  1.000  0.000
  0.000  0.000  0.000  0.000  1.000
    occupations:
  0.200  0.000  0.000  0.000  0.000
  0.000  0.200  0.000  0.000  0.000
  0.000  0.000  0.200  0.000  0.000
  0.000  0.000  0.000  0.200  0.000
  0.000  0.000  0.000  0.000  0.200
atomic mag. moment =     4.000000
atom    9   Tr[ns(na)] (up, down, total) =   5.00000  1.00000  6.00000
   spin  1
    eigenvalues: 
  1.000  1.000  1.000  1.000  1.000
    eigenvectors:
  1.000  0.000  0.000  0.000  0.000
  0.000  1.000  0.000  0.000  0.000
  0.000  0.000  1.000  0.000  0.000
  0.000  0.000  0.000  1.000  0.000
  0.000  0.000  0.000  0.000  1.000
    occupations:
  1.000  0.000  0.000  0.000  0.000
  0.000  1.000  0.000  0.000  0.000
  0.000  0.000  1.000  0.000  0.000
  0.000  0.000  0.000  1.000  0.000
  0.000  0.000  0.000  0.000  1.000
   spin  2
    eigenvalues: 
  0.200  0.200  0.200  0.200  0.200
    eigenvectors:
  1.000  0.000  0.000  0.000  0.000
  0.000  1.000  0.000  0.000  0.000
  0.000  0.000  1.000  0.000  0.000
  0.000  0.000  0.000  1.000  0.000
  0.000  0.000  0.000  0.000  1.000
    occupations:
  0.200  0.000  0.000  0.000  0.000
  0.000  0.200  0.000  0.000  0.000
  0.000  0.000  0.200  0.000  0.000
  0.000  0.000  0.000  0.200  0.000
  0.000  0.000  0.000  0.000  0.200
atomic mag. moment =     4.000000
atom   10   Tr[ns(na)] (up, down, total) =   5.00000  1.00000  6.00000
   spin  1
    eigenvalues: 
  1.000  1.000  1.000  1.000  1.000
    eigenvectors:
  1.000  0.000  0.000  0.000  0.000
  0.000  1.000  0.000  0.000  0.000
  0.000  0.000  1.000  0.000  0.000
  0.000  0.000  0.000  1.000  0.000
  0.000  0.000  0.000  0.000  1.000
    occupations:
  1.000  0.000  0.000  0.000  0.000
  0.000  1.000  0.000  0.000  0.000
  0.000  0.000  1.000  0.000  0.000
  0.000  0.000  0.000  1.000  0.000
  0.000  0.000  0.000  0.000  1.000
   spin  2
    eigenvalues: 
  0.200  0.200  0.200  0.200  0.200
    eigenvectors:
  1.000  0.000  0.000  0.000  0.000
  0.000  1.000  0.000  0.000  0.000
  0.000  0.000  1.000  0.000  0.000
  0.000  0.000  0.000  1.000  0.000
  0.000  0.000  0.000  0.000  1.000
    occupations:
  0.200  0.000  0.000  0.000  0.000
  0.000  0.200  0.000  0.000  0.000
  0.000  0.000  0.200  0.000  0.000
  0.000  0.000  0.000  0.200  0.000
  0.000  0.000  0.000  0.000  0.200
atomic mag. moment =     4.000000
atom   11   Tr[ns(na)] (up, down, total) =   5.00000  1.00000  6.00000
   spin  1
    eigenvalues: 
  1.000  1.000  1.000  1.000  1.000
    eigenvectors:
  1.000  0.000  0.000  0.000  0.000
  0.000  1.000  0.000  0.000  0.000
  0.000  0.000  1.000  0.000  0.000
  0.000  0.000  0.000  1.000  0.000
  0.000  0.000  0.000  0.000  1.000
    occupations:
  1.000  0.000  0.000  0.000  0.000
  0.000  1.000  0.000  0.000  0.000
  0.000  0.000  1.000  0.000  0.000
  0.000  0.000  0.000  1.000  0.000
  0.000  0.000  0.000  0.000  1.000
   spin  2
    eigenvalues: 
  0.200  0.200  0.200  0.200  0.200
    eigenvectors:
  1.000  0.000  0.000  0.000  0.000
  0.000  1.000  0.000  0.000  0.000
  0.000  0.000  1.000  0.000  0.000
  0.000  0.000  0.000  1.000  0.000
  0.000  0.000  0.000  0.000  1.000
    occupations:
  0.200  0.000  0.000  0.000  0.000
  0.000  0.200  0.000  0.000  0.000
  0.000  0.000  0.200  0.000  0.000
  0.000  0.000  0.000  0.200  0.000
  0.000  0.000  0.000  0.000  0.200
atomic mag. moment =     4.000000
atom   12   Tr[ns(na)] (up, down, total) =   5.00000  1.00000  6.00000
   spin  1
    eigenvalues: 
  1.000  1.000  1.000  1.000  1.000
    eigenvectors:
  1.000  0.000  0.000  0.000  0.000
  0.000  1.000  0.000  0.000  0.000
  0.000  0.000  1.000  0.000  0.000
  0.000  0.000  0.000  1.000  0.000
  0.000  0.000  0.000  0.000  1.000
    occupations:
  1.000  0.000  0.000  0.000  0.000
  0.000  1.000  0.000  0.000  0.000
  0.000  0.000  1.000  0.000  0.000
  0.000  0.000  0.000  1.000  0.000
  0.000  0.000  0.000  0.000  1.000
   spin  2
    eigenvalues: 
  0.200  0.200  0.200  0.200  0.200
    eigenvectors:
  1.000  0.000  0.000  0.000  0.000
  0.000  1.000  0.000  0.000  0.000
  0.000  0.000  1.000  0.000  0.000
  0.000  0.000  0.000  1.000  0.000
  0.000  0.000  0.000  0.000  1.000
    occupations:
  0.200  0.000  0.000  0.000  0.000
  0.000  0.200  0.000  0.000  0.000
  0.000  0.000  0.200  0.000  0.000
  0.000  0.000  0.000  0.200  0.000
  0.000  0.000  0.000  0.000  0.200
atomic mag. moment =     4.000000
atom   13   Tr[ns(na)] (up, down, total) =   5.00000  1.00000  6.00000
   spin  1
    eigenvalues: 
  1.000  1.000  1.000  1.000  1.000
    eigenvectors:
  1.000  0.000  0.000  0.000  0.000
  0.000  1.000  0.000  0.000  0.000
  0.000  0.000  1.000  0.000  0.000
  0.000  0.000  0.000  1.000  0.000
  0.000  0.000  0.000  0.000  1.000
    occupations:
  1.000  0.000  0.000  0.000  0.000
  0.000  1.000  0.000  0.000  0.000
  0.000  0.000  1.000  0.000  0.000
  0.000  0.000  0.000  1.000  0.000
  0.000  0.000  0.000  0.000  1.000
   spin  2
    eigenvalues: 
  0.200  0.200  0.200  0.200  0.200
    eigenvectors:
  1.000  0.000  0.000  0.000  0.000
  0.000  1.000  0.000  0.000  0.000
  0.000  0.000  1.000  0.000  0.000
  0.000  0.000  0.000  1.000  0.000
  0.000  0.000  0.000  0.000  1.000
    occupations:
  0.200  0.000  0.000  0.000  0.000
  0.000  0.200  0.000  0.000  0.000
  0.000  0.000  0.200  0.000  0.000
  0.000  0.000  0.000  0.200  0.000
  0.000  0.000  0.000  0.000  0.200
atomic mag. moment =     4.000000
atom   14   Tr[ns(na)] (up, down, total) =   5.00000  1.00000  6.00000
   spin  1
    eigenvalues: 
  1.000  1.000  1.000  1.000  1.000
    eigenvectors:
  1.000  0.000  0.000  0.000  0.000
  0.000  1.000  0.000  0.000  0.000
  0.000  0.000  1.000  0.000  0.000
  0.000  0.000  0.000  1.000  0.000
  0.000  0.000  0.000  0.000  1.000
    occupations:
  1.000  0.000  0.000  0.000  0.000
  0.000  1.000  0.000  0.000  0.000
  0.000  0.000  1.000  0.000  0.000
  0.000  0.000  0.000  1.000  0.000
  0.000  0.000  0.000  0.000  1.000
   spin  2
    eigenvalues: 
  0.200  0.200  0.200  0.200  0.200
    eigenvectors:
  1.000  0.000  0.000  0.000  0.000
  0.000  1.000  0.000  0.000  0.000
  0.000  0.000  1.000  0.000  0.000
  0.000  0.000  0.000  1.000  0.000
  0.000  0.000  0.000  0.000  1.000
    occupations:
  0.200  0.000  0.000  0.000  0.000
  0.000  0.200  0.000  0.000  0.000
  0.000  0.000  0.200  0.000  0.000
  0.000  0.000  0.000  0.200  0.000
  0.000  0.000  0.000  0.000  0.200
atomic mag. moment =     4.000000
atom   15   Tr[ns(na)] (up, down, total) =   5.00000  1.00000  6.00000
   spin  1
    eigenvalues: 
  1.000  1.000  1.000  1.000  1.000
    eigenvectors:
  1.000  0.000  0.000  0.000  0.000
  0.000  1.000  0.000  0.000  0.000
  0.000  0.000  1.000  0.000  0.000
  0.000  0.000  0.000  1.000  0.000
  0.000  0.000  0.000  0.000  1.000
    occupations:
  1.000  0.000  0.000  0.000  0.000
  0.000  1.000  0.000  0.000  0.000
  0.000  0.000  1.000  0.000  0.000
  0.000  0.000  0.000  1.000  0.000
  0.000  0.000  0.000  0.000  1.000
   spin  2
    eigenvalues: 
  0.200  0.200  0.200  0.200  0.200
    eigenvectors:
  1.000  0.000  0.000  0.000  0.000
  0.000  1.000  0.000  0.000  0.000
  0.000  0.000  1.000  0.000  0.000
  0.000  0.000  0.000  1.000  0.000
  0.000  0.000  0.000  0.000  1.000
    occupations:
  0.200  0.000  0.000  0.000  0.000
  0.000  0.200  0.000  0.000  0.000
  0.000  0.000  0.200  0.000  0.000
  0.000  0.000  0.000  0.200  0.000
  0.000  0.000  0.000  0.000  0.200
atomic mag. moment =     4.000000
atom   16   Tr[ns(na)] (up, down, total) =   5.00000  1.00000  6.00000
   spin  1
    eigenvalues: 
  1.000  1.000  1.000  1.000  1.000
    eigenvectors:
  1.000  0.000  0.000  0.000  0.000
  0.000  1.000  0.000  0.000  0.000
  0.000  0.000  1.000  0.000  0.000
  0.000  0.000  0.000  1.000  0.000
  0.000  0.000  0.000  0.000  1.000
    occupations:
  1.000  0.000  0.000  0.000  0.000
  0.000  1.000  0.000  0.000  0.000
  0.000  0.000  1.000  0.000  0.000
  0.000  0.000  0.000  1.000  0.000
  0.000  0.000  0.000  0.000  1.000
   spin  2
    eigenvalues: 
  0.200  0.200  0.200  0.200  0.200
    eigenvectors:
  1.000  0.000  0.000  0.000  0.000
  0.000  1.000  0.000  0.000  0.000
  0.000  0.000  1.000  0.000  0.000
  0.000  0.000  0.000  1.000  0.000
  0.000  0.000  0.000  0.000  1.000
    occupations:
  0.200  0.000  0.000  0.000  0.000
  0.000  0.200  0.000  0.000  0.000
  0.000  0.000  0.200  0.000  0.000
  0.000  0.000  0.000  0.200  0.000
  0.000  0.000  0.000  0.000  0.200
atomic mag. moment =     4.000000
atom   17   Tr[ns(na)] (up, down, total) =   5.00000  1.00000  6.00000
   spin  1
    eigenvalues: 
  1.000  1.000  1.000  1.000  1.000
    eigenvectors:
  1.000  0.000  0.000  0.000  0.000
  0.000  1.000  0.000  0.000  0.000
  0.000  0.000  1.000  0.000  0.000
  0.000  0.000  0.000  1.000  0.000
  0.000  0.000  0.000  0.000  1.000
    occupations:
  1.000  0.000  0.000  0.000  0.000
  0.000  1.000  0.000  0.000  0.000
  0.000  0.000  1.000  0.000  0.000
  0.000  0.000  0.000  1.000  0.000
  0.000  0.000  0.000  0.000  1.000
   spin  2
    eigenvalues: 
  0.200  0.200  0.200  0.200  0.200
    eigenvectors:
  1.000  0.000  0.000  0.000  0.000
  0.000  1.000  0.000  0.000  0.000
  0.000  0.000  1.000  0.000  0.000
  0.000  0.000  0.000  1.000  0.000
  0.000  0.000  0.000  0.000  1.000
    occupations:
  0.200  0.000  0.000  0.000  0.000
  0.000  0.200  0.000  0.000  0.000
  0.000  0.000  0.200  0.000  0.000
  0.000  0.000  0.000  0.200  0.000
  0.000  0.000  0.000  0.000  0.200
atomic mag. moment =     4.000000
atom   18   Tr[ns(na)] (up, down, total) =   5.00000  1.00000  6.00000
   spin  1
    eigenvalues: 
  1.000  1.000  1.000  1.000  1.000
    eigenvectors:
  1.000  0.000  0.000  0.000  0.000
  0.000  1.000  0.000  0.000  0.000
  0.000  0.000  1.000  0.000  0.000
  0.000  0.000  0.000  1.000  0.000
  0.000  0.000  0.000  0.000  1.000
    occupations:
  1.000  0.000  0.000  0.000  0.000
  0.000  1.000  0.000  0.000  0.000
  0.000  0.000  1.000  0.000  0.000
  0.000  0.000  0.000  1.000  0.000
  0.000  0.000  0.000  0.000  1.000
   spin  2
    eigenvalues: 
  0.200  0.200  0.200  0.200  0.200
    eigenvectors:
  1.000  0.000  0.000  0.000  0.000
  0.000  1.000  0.000  0.000  0.000
  0.000  0.000  1.000  0.000  0.000
  0.000  0.000  0.000  1.000  0.000
  0.000  0.000  0.000  0.000  1.000
    occupations:
  0.200  0.000  0.000  0.000  0.000
  0.000  0.200  0.000  0.000  0.000
  0.000  0.000  0.200  0.000  0.000
  0.000  0.000  0.000  0.200  0.000
  0.000  0.000  0.000  0.000  0.200
atomic mag. moment =     4.000000
atom   19   Tr[ns(na)] (up, down, total) =   5.00000  1.00000  6.00000
   spin  1
    eigenvalues: 
  1.000  1.000  1.000  1.000  1.000
    eigenvectors:
  1.000  0.000  0.000  0.000  0.000
  0.000  1.000  0.000  0.000  0.000
  0.000  0.000  1.000  0.000  0.000
  0.000  0.000  0.000  1.000  0.000
  0.000  0.000  0.000  0.000  1.000
    occupations:
  1.000  0.000  0.000  0.000  0.000
  0.000  1.000  0.000  0.000  0.000
  0.000  0.000  1.000  0.000  0.000
  0.000  0.000  0.000  1.000  0.000
  0.000  0.000  0.000  0.000  1.000
   spin  2
    eigenvalues: 
  0.200  0.200  0.200  0.200  0.200
    eigenvectors:
  1.000  0.000  0.000  0.000  0.000
  0.000  1.000  0.000  0.000  0.000
  0.000  0.000  1.000  0.000  0.000
  0.000  0.000  0.000  1.000  0.000
  0.000  0.000  0.000  0.000  1.000
    occupations:
  0.200  0.000  0.000  0.000  0.000
  0.000  0.200  0.000  0.000  0.000
  0.000  0.000  0.200  0.000  0.000
  0.000  0.000  0.000  0.200  0.000
  0.000  0.000  0.000  0.000  0.200
atomic mag. moment =     4.000000
atom   20   Tr[ns(na)] (up, down, total) =   5.00000  1.00000  6.00000
   spin  1
    eigenvalues: 
  1.000  1.000  1.000  1.000  1.000
    eigenvectors:
  1.000  0.000  0.000  0.000  0.000
  0.000  1.000  0.000  0.000  0.000
  0.000  0.000  1.000  0.000  0.000
  0.000  0.000  0.000  1.000  0.000
  0.000  0.000  0.000  0.000  1.000
    occupations:
  1.000  0.000  0.000  0.000  0.000
  0.000  1.000  0.000  0.000  0.000
  0.000  0.000  1.000  0.000  0.000
  0.000  0.000  0.000  1.000  0.000
  0.000  0.000  0.000  0.000  1.000
   spin  2
    eigenvalues: 
  0.200  0.200  0.200  0.200  0.200
    eigenvectors:
  1.000  0.000  0.000  0.000  0.000
  0.000  1.000  0.000  0.000  0.000
  0.000  0.000  1.000  0.000  0.000
  0.000  0.000  0.000  1.000  0.000
  0.000  0.000  0.000  0.000  1.000
    occupations:
  0.200  0.000  0.000  0.000  0.000
  0.000  0.200  0.000  0.000  0.000
  0.000  0.000  0.200  0.000  0.000
  0.000  0.000  0.000  0.200  0.000
  0.000  0.000  0.000  0.000  0.200
atomic mag. moment =     4.000000
N of occupied +U levels = 120.0000000
 --- exit write_ns ---
 Atomic wfc used for LDA+U Projector are NOT orthogonalized
     Starting wfc are  266 randomized atomic wfcs
     Checking if some PAW data can be deallocated... 
       node    0, deallocated PAW data for type:  2
       node    0, deallocated PAW data for type:  3
       node    1, deallocated PAW data for type:  2
       node    1, deallocated PAW data for type:  3
       node    2, deallocated PAW data for type:  2
       node    2, deallocated PAW data for type:  3
       node    3, deallocated PAW data for type:  2
       node    3, deallocated PAW data for type:  3
       node    4, deallocated PAW data for type:  2
       node    4, deallocated PAW data for type:  3
       node    5, deallocated PAW data for type:  2
       node    5, deallocated PAW data for type:  3
       node    6, deallocated PAW data for type:  2
       node    6, deallocated PAW data for type:  3
       node    7, deallocated PAW data for type:  2
       node    7, deallocated PAW data for type:  3
       node    8, deallocated PAW data for type:  2
       node    8, deallocated PAW data for type:  3
       node    9, deallocated PAW data for type:  2
       node    9, deallocated PAW data for type:  3
       node   10, deallocated PAW data for type:  2
       node   10, deallocated PAW data for type:  3
       node   11, deallocated PAW data for type:  2
       node   11, deallocated PAW data for type:  3
       node   12, deallocated PAW data for type:  2
       node   12, deallocated PAW data for type:  3
       node   13, deallocated PAW data for type:  2
       node   13, deallocated PAW data for type:  3
       node   14, deallocated PAW data for type:  2
       node   14, deallocated PAW data for type:  3
       node   15, deallocated PAW data for type:  2
       node   15, deallocated PAW data for type:  3
       node   16, deallocated PAW data for type:  2
       node   16, deallocated PAW data for type:  3
       node   17, deallocated PAW data for type:  2
       node   17, deallocated PAW data for type:  3
       node   18, deallocated PAW data for type:  2
       node   18, deallocated PAW data for type:  3
       node   19, deallocated PAW data for type:  2
       node   19, deallocated PAW data for type:  3
       node   20, deallocated PAW data for type:  2
       node   20, deallocated PAW data for type:  3
       node   21, deallocated PAW data for type:  2
       node   21, deallocated PAW data for type:  3
       node   22, deallocated PAW data for type:  2
       node   22, deallocated PAW data for type:  3
       node   23, deallocated PAW data for type:  2
       node   23, deallocated PAW data for type:  3
       node   24, deallocated PAW data for type:  2
       node   24, deallocated PAW data for type:  3
       node   25, deallocated PAW data for type:  2
       node   25, deallocated PAW data for type:  3
       node   26, deallocated PAW data for type:  2
       node   26, deallocated PAW data for type:  3
       node   27, deallocated PAW data for type:  2
       node   27, deallocated PAW data for type:  3
       node   28, deallocated PAW data for type:  2
       node   28, deallocated PAW data for type:  3
       node   29, deallocated PAW data for type:  2
       node   29, deallocated PAW data for type:  3
       node   30, deallocated PAW data for type:  2
       node   30, deallocated PAW data for type:  3
       node   31, deallocated PAW data for type:  2
       node   31, deallocated PAW data for type:  3
       node   32, deallocated PAW data for type:  2
       node   32, deallocated PAW data for type:  3
       node   33, deallocated PAW data for type:  2
       node   33, deallocated PAW data for type:  3
       node   34, deallocated PAW data for type:  2
       node   34, deallocated PAW data for type:  3
       node   35, deallocated PAW data for type:  2
       node   35, deallocated PAW data for type:  3
       node   36, deallocated PAW data for type:  2
       node   36, deallocated PAW data for type:  3
       node   37, deallocated PAW data for type:  2
       node   37, deallocated PAW data for type:  3
       node   38, deallocated PAW data for type:  2
       node   38, deallocated PAW data for type:  3
       node   39, deallocated PAW data for type:  2
       node   39, deallocated PAW data for type:  3
       node   40, deallocated PAW data for type:  2
       node   40, deallocated PAW data for type:  3
       node   41, deallocated PAW data for type:  2
       node   41, deallocated PAW data for type:  3
       node   42, deallocated PAW data for type:  1
       node   42, deallocated PAW data for type:  3
       node   43, deallocated PAW data for type:  1
       node   43, deallocated PAW data for type:  3
       node   44, deallocated PAW data for type:  1
       node   44, deallocated PAW data for type:  2
       node   45, deallocated PAW data for type:  1
       node   45, deallocated PAW data for type:  2
       node   46, deallocated PAW data for type:  1
       node   46, deallocated PAW data for type:  2
       node   47, deallocated PAW data for type:  1
       node   47, deallocated PAW data for type:  2

     total cpu time spent up to now is       46.4 secs

     per-process dynamical memory:   315.0 Mb

     Self-consistent Calculation

     iteration #  1     ecut=    95.00 Ry     beta=0.50
     Davidson diagonalization with overlap
     ethr =  1.00E-02,  avg # of iterations =  2.9
 --- enter write_ns ---
 LDA+U parameters:
U( 1)     =  0.00000000
alpha( 1) =  0.00000000
atom    1   Tr[ns(na)] (up, down, total) =   4.98323  1.03192  6.01515
   spin  1
    eigenvalues: 
  0.995  0.997  0.997  0.997  0.998
    eigenvectors:
  0.903  0.000  0.000  0.096  0.001
  0.000  0.058  0.276  0.000  0.665
  0.000  0.118  0.548  0.000  0.333
  0.011  0.736  0.157  0.097  0.000
  0.086  0.088  0.020  0.806  0.000
    occupations:
  0.995  0.000 -0.000  0.000 -0.001
  0.000  0.997 -0.000  0.000  0.000
 -0.000 -0.000  0.997  0.000  0.000
  0.000  0.000  0.000  0.997 -0.000
 -0.001  0.000  0.000 -0.000  0.997
   spin  2
    eigenvalues: 
  0.144  0.194  0.195  0.206  0.292
    eigenvectors:
  0.000  0.000  0.991  0.000  0.009
  0.333  0.667  0.000  0.000  0.000
  0.667  0.333  0.000  0.000  0.000
  0.000  0.000  0.001  0.887  0.111
  0.000  0.000  0.008  0.112  0.880
    occupations:
  0.196 -0.000 -0.000  0.003 -0.008
 -0.000  0.177 -0.023 -0.000 -0.000
 -0.000 -0.023  0.161  0.000 -0.000
  0.003 -0.000  0.000  0.216 -0.027
 -0.008 -0.000 -0.000 -0.027  0.282
atomic mag. moment =     3.951304
atom    2   Tr[ns(na)] (up, down, total) =   4.98343  1.03050  6.01392
   spin  1
    eigenvalues: 
  0.996  0.996  0.997  0.997  0.997
    eigenvectors:
  0.734  0.000  0.000  0.018  0.248
  0.001  0.299  0.014  0.627  0.059
  0.003  0.657  0.022  0.311  0.007
  0.027  0.022  0.864  0.003  0.084
  0.235  0.022  0.100  0.040  0.602
    occupations:
  0.996  0.000  0.000  0.000 -0.001
  0.000  0.997 -0.000  0.000 -0.000
  0.000 -0.000  0.997 -0.000 -0.000
  0.000  0.000 -0.000  0.997 -0.000
 -0.001 -0.000 -0.000 -0.000  0.997
   spin  2
    eigenvalues: 
  0.144  0.194  0.196  0.206  0.291
    eigenvectors:
  0.000  0.005  0.986  0.000  0.008
  0.336  0.660  0.004  0.000  0.000
  0.664  0.334  0.001  0.000  0.000
  0.000  0.000  0.000  0.890  0.110
  0.000  0.000  0.008  0.110  0.882
    occupations:
  0.196  0.000  0.000  0.003 -0.008
  0.000  0.177 -0.024  0.000  0.000
  0.000 -0.024  0.161 -0.000  0.000
  0.003  0.000 -0.000  0.215 -0.027
 -0.008  0.000  0.000 -0.027  0.281
atomic mag. moment =     3.952930
atom    3   Tr[ns(na)] (up, down, total) =   4.98339  1.03114  6.01453
   spin  1
    eigenvalues: 
  0.996  0.996  0.997  0.997  0.997
    eigenvectors:
  0.738  0.000  0.001  0.014  0.247
  0.002  0.340  0.008  0.632  0.019
  0.002  0.624  0.019  0.317  0.038
  0.035  0.035  0.856  0.005  0.069
  0.223  0.001  0.117  0.032  0.626
    occupations:
  0.996 -0.000 -0.000  0.000 -0.001
 -0.000  0.997 -0.000 -0.000  0.000
 -0.000 -0.000  0.997 -0.000  0.000
  0.000 -0.000 -0.000  0.997 -0.000
 -0.001  0.000  0.000 -0.000  0.997
   spin  2
    eigenvalues: 
  0.144  0.194  0.196  0.206  0.291
    eigenvectors:
  0.000  0.000  0.990  0.001  0.008
  0.331  0.669  0.000  0.000  0.000
  0.669  0.331  0.000  0.000  0.000
  0.000  0.000  0.000  0.889  0.111
  0.000  0.000  0.009  0.110  0.881
    occupations:
  0.196 -0.000 -0.000  0.002 -0.008
 -0.000  0.177 -0.023 -0.000 -0.000
 -0.000 -0.023  0.161 -0.000  0.000
  0.002 -0.000 -0.000  0.216 -0.027
 -0.008 -0.000  0.000 -0.027  0.281
atomic mag. moment =     3.952246
atom    4   Tr[ns(na)] (up, down, total) =   4.98314  1.02878  6.01192
   spin  1
    eigenvalues: 
  0.995  0.996  0.997  0.997  0.997
    eigenvectors:
  0.878  0.000  0.000  0.116  0.006
  0.000  0.314  0.020  0.022  0.643
  0.000  0.624  0.042  0.011  0.324
  0.013  0.055  0.836  0.092  0.003
  0.109  0.007  0.102  0.758  0.024
    occupations:
  0.996 -0.000  0.000  0.000 -0.001
 -0.000  0.997 -0.000  0.000  0.000
  0.000 -0.000  0.997  0.000 -0.000
  0.000  0.000  0.000  0.997 -0.000
 -0.001  0.000 -0.000 -0.000  0.997
   spin  2
    eigenvalues: 
  0.143  0.194  0.195  0.206  0.291
    eigenvectors:
  0.000  0.072  0.919  0.000  0.009
  0.335  0.616  0.049  0.000  0.000
  0.665  0.311  0.024  0.000  0.000
  0.000  0.000  0.002  0.889  0.109
  0.000  0.001  0.007  0.111  0.882
    occupations:
  0.196 -0.000  0.000  0.003 -0.008
 -0.000  0.177 -0.024 -0.000  0.000
  0.000 -0.024  0.160  0.000  0.000
  0.003 -0.000  0.000  0.215 -0.026
 -0.008  0.000  0.000 -0.026  0.281
atomic mag. moment =     3.954367
atom    5   Tr[ns(na)] (up, down, total) =   4.98205  1.99275  6.97481
   spin  1
    eigenvalues: 
  0.996  0.996  0.996  0.997  0.997
    eigenvectors:
  0.022  0.770  0.033  0.175  0.000
  0.006  0.012  0.332  0.001  0.649
  0.006  0.025  0.620  0.002  0.347
  0.821  0.091  0.001  0.086  0.001
  0.145  0.103  0.014  0.735  0.002
    occupations:
  0.996 -0.000 -0.000  0.000 -0.000
 -0.000  0.997 -0.001 -0.000 -0.000
 -0.000 -0.001  0.997 -0.000 -0.000
  0.000 -0.000 -0.000  0.996 -0.000
 -0.000 -0.000 -0.000 -0.000  0.997
   spin  2
    eigenvalues: 
  0.363  0.365  0.399  0.432  0.434
    eigenvectors:
  0.000  0.201  0.000  0.074  0.724
  0.663  0.001  0.336  0.000  0.000
  0.335  0.002  0.663  0.000  0.000
  0.000  0.089  0.000  0.725  0.185
  0.002  0.707  0.000  0.201  0.091
    occupations:
  0.420 -0.000 -0.000 -0.010  0.026
 -0.000  0.375  0.017 -0.000 -0.001
 -0.000  0.017  0.387  0.000 -0.001
 -0.010 -0.000  0.000  0.426  0.017
  0.026 -0.001 -0.001  0.017  0.385
atomic mag. moment =     2.989300
atom    6   Tr[ns(na)] (up, down, total) =   4.98208  1.99328  6.97537
   spin  1
    eigenvalues: 
  0.996  0.996  0.996  0.997  0.997
    eigenvectors:
  0.022  0.770  0.037  0.171  0.000
  0.001  0.014  0.298  0.001  0.685
  0.007  0.027  0.652  0.000  0.314
  0.895  0.001  0.007  0.096  0.000
  0.074  0.188  0.005  0.731  0.001
    occupations:
  0.996  0.000  0.000  0.000 -0.000
  0.000  0.997 -0.001  0.000  0.000
  0.000 -0.001  0.997 -0.000 -0.000
  0.000  0.000 -0.000  0.996 -0.000
 -0.000  0.000 -0.000 -0.000  0.997
   spin  2
    eigenvalues: 
  0.363  0.366  0.400  0.432  0.433
    eigenvectors:
  0.000  0.197  0.000  0.642  0.160
  0.666  0.002  0.332  0.000  0.000
  0.331  0.001  0.668  0.000  0.000
  0.000  0.088  0.000  0.306  0.605
  0.002  0.712  0.000  0.051  0.235
    occupations:
  0.419  0.001  0.000 -0.009  0.025
  0.001  0.375  0.017 -0.001  0.000
  0.000  0.017  0.387  0.000 -0.000
 -0.009 -0.001  0.000  0.427  0.017
  0.025  0.000 -0.000  0.017  0.385
atomic mag. moment =     2.988800
atom    7   Tr[ns(na)] (up, down, total) =   4.98230  1.99235  6.97464
   spin  1
    eigenvalues: 
  0.995  0.996  0.996  0.997  0.997
    eigenvectors:
  0.000  0.639  0.006  0.167  0.189
  0.004  0.002  0.329  0.343  0.322
  0.007  0.006  0.653  0.175  0.159
  0.879  0.044  0.006  0.035  0.036
  0.111  0.309  0.007  0.280  0.294
    occupations:
  0.996 -0.000  0.000  0.000 -0.001
 -0.000  0.997 -0.001  0.000  0.000
  0.000 -0.001  0.997  0.000 -0.000
  0.000  0.000  0.000  0.996 -0.000
 -0.001  0.000 -0.000 -0.000  0.997
   spin  2
    eigenvalues: 
  0.363  0.365  0.400  0.432  0.433
    eigenvectors:
  0.000  0.194  0.000  0.052  0.754
  0.659  0.000  0.340  0.000  0.000
  0.341  0.000  0.659  0.000  0.000
  0.000  0.089  0.000  0.901  0.010
  0.000  0.717  0.000  0.046  0.236
    occupations:
  0.420 -0.000  0.000 -0.009  0.025
 -0.000  0.375  0.017  0.000  0.000
  0.000  0.017  0.387  0.000  0.000
 -0.009  0.000  0.000  0.426  0.017
  0.025  0.000  0.000  0.017  0.384
atomic mag. moment =     2.989950
atom    8   Tr[ns(na)] (up, down, total) =   4.98251  1.99313  6.97564
   spin  1
    eigenvalues: 
  0.995  0.996  0.996  0.997  0.997
    eigenvectors:
  0.000  0.561  0.003  0.231  0.205
  0.000  0.001  0.338  0.307  0.353
  0.000  0.004  0.656  0.158  0.182
  0.890  0.048  0.000  0.034  0.028
  0.109  0.386  0.003  0.270  0.232
    occupations:
  0.997  0.000 -0.000  0.000 -0.001
  0.000  0.997 -0.001  0.000 -0.000
 -0.000 -0.001  0.997 -0.000  0.000
  0.000  0.000 -0.000  0.996 -0.000
 -0.001 -0.000  0.000 -0.000  0.997
   spin  2
    eigenvalues: 
  0.363  0.365  0.400  0.433  0.433
    eigenvectors:
  0.005  0.187  0.000  0.019  0.789
  0.655  0.016  0.329  0.000  0.000
  0.322  0.007  0.670  0.000  0.000
  0.002  0.088  0.000  0.825  0.084
  0.016  0.701  0.000  0.155  0.127
    occupations:
  0.420  0.000 -0.001 -0.009  0.025
  0.000  0.375  0.017 -0.000 -0.000
 -0.001  0.017  0.387 -0.000 -0.000
 -0.009 -0.000 -0.000  0.427  0.017
  0.025 -0.000 -0.000  0.017  0.384
atomic mag. moment =     2.989383
atom    9   Tr[ns(na)] (up, down, total) =   4.98173  2.00730  6.98903
   spin  1
    eigenvalues: 
  0.996  0.996  0.996  0.997  0.997
    eigenvectors:
  0.004  0.874  0.000  0.121  0.001
  0.000  0.001  0.328  0.008  0.663
  0.000  0.000  0.671  0.004  0.325
  0.871  0.032  0.000  0.095  0.002
  0.124  0.093  0.000  0.772  0.010
    occupations:
  0.996 -0.000 -0.000  0.000 -0.000
 -0.000  0.997 -0.001  0.000 -0.000
 -0.000 -0.001  0.996 -0.000  0.000
  0.000  0.000 -0.000  0.996 -0.000
 -0.000 -0.000  0.000 -0.000  0.997
   spin  2
    eigenvalues: 
  0.366  0.368  0.420  0.425  0.428
    eigenvectors:
  0.305  0.013  0.670  0.011  0.001
  0.026  0.645  0.005  0.306  0.017
  0.014  0.315  0.011  0.630  0.030
  0.072  0.004  0.035  0.052  0.837
  0.583  0.023  0.279  0.000  0.115
    occupations:
  0.403  0.000  0.001 -0.008  0.024
  0.000  0.387  0.027  0.001  0.001
  0.001  0.027  0.406  0.000  0.000
 -0.008  0.001  0.000  0.423  0.014
  0.024  0.001  0.000  0.014  0.388
atomic mag. moment =     2.974438
atom   10   Tr[ns(na)] (up, down, total) =   4.98244  2.01202  6.99446
   spin  1
    eigenvalues: 
  0.996  0.996  0.996  0.997  0.997
    eigenvectors:
  0.780  0.001  0.004  0.210  0.004
  0.003  0.000  0.313  0.008  0.676
  0.005  0.000  0.678  0.011  0.306
  0.030  0.896  0.000  0.070  0.002
  0.181  0.102  0.005  0.700  0.011
    occupations:
  0.996 -0.000 -0.000  0.000 -0.001
 -0.000  0.997 -0.001 -0.000  0.000
 -0.000 -0.001  0.996  0.000  0.000
  0.000 -0.000  0.000  0.996 -0.000
 -0.001  0.000  0.000 -0.000  0.997
   spin  2
    eigenvalues: 
  0.363  0.368  0.424  0.427  0.430
    eigenvectors:
  0.332  0.001  0.632  0.002  0.033
  0.004  0.644  0.023  0.004  0.325
  0.000  0.352  0.037  0.006  0.604
  0.074  0.000  0.025  0.899  0.003
  0.590  0.003  0.283  0.089  0.035
    occupations:
  0.404  0.000 -0.000 -0.010  0.027
  0.000  0.390  0.029  0.000 -0.001
 -0.000  0.029  0.408  0.000 -0.002
 -0.010  0.000  0.000  0.422  0.014
  0.027 -0.001 -0.002  0.014  0.388
atomic mag. moment =     2.970412
atom   11   Tr[ns(na)] (up, down, total) =   4.98243  2.01007  6.99250
   spin  1
    eigenvalues: 
  0.996  0.996  0.996  0.997  0.997
    eigenvectors:
  0.785  0.000  0.003  0.209  0.003
  0.002  0.000  0.353  0.013  0.631
  0.005  0.000  0.639  0.002  0.355
  0.026  0.871  0.000  0.102  0.001
  0.183  0.128  0.005  0.675  0.010
    occupations:
  0.996  0.000  0.000  0.000 -0.001
  0.000  0.997 -0.001  0.000  0.000
  0.000 -0.001  0.997  0.000 -0.000
  0.000  0.000  0.000  0.996 -0.000
 -0.001  0.000 -0.000 -0.000  0.997
   spin  2
    eigenvalues: 
  0.363  0.367  0.423  0.426  0.430
    eigenvectors:
  0.336  0.001  0.661  0.001  0.001
  0.000  0.683  0.002  0.002  0.313
  0.002  0.316  0.003  0.006  0.674
  0.074  0.000  0.049  0.866  0.011
  0.588  0.001  0.286  0.125  0.000
    occupations:
  0.403 -0.000 -0.000 -0.009  0.027
 -0.000  0.387  0.029 -0.001  0.001
 -0.000  0.029  0.410 -0.001  0.001
 -0.009 -0.001 -0.001  0.422  0.014
  0.027  0.001  0.001  0.014  0.388
atomic mag. moment =     2.972362
atom   12   Tr[ns(na)] (up, down, total) =   4.98136  2.00277  6.98413
   spin  1
    eigenvalues: 
  0.995  0.996  0.996  0.997  0.997
    eigenvectors:
  0.873  0.009  0.000  0.119  0.000
  0.001  0.000  0.331  0.009  0.660
  0.001  0.000  0.668  0.005  0.326
  0.044  0.853  0.000  0.101  0.002
  0.082  0.138  0.000  0.767  0.013
    occupations:
  0.996  0.000 -0.000  0.000 -0.000
  0.000  0.997 -0.001 -0.000  0.000
 -0.000 -0.001  0.996  0.000 -0.000
  0.000 -0.000  0.000  0.996 -0.000
 -0.000  0.000 -0.000 -0.000  0.997
   spin  2
    eigenvalues: 
  0.366  0.368  0.418  0.424  0.427
    eigenvectors:
  0.317  0.013  0.670  0.000  0.000
  0.028  0.643  0.000  0.328  0.001
  0.012  0.317  0.001  0.669  0.001
  0.073  0.003  0.033  0.002  0.889
  0.570  0.024  0.297  0.000  0.109
    occupations:
  0.401  0.000 -0.000 -0.008  0.023
  0.000  0.386  0.026  0.000 -0.000
 -0.000  0.026  0.406 -0.000 -0.000
 -0.008  0.000 -0.000  0.422  0.014
  0.023 -0.000 -0.000  0.014  0.388
atomic mag. moment =     2.978587
atom   13   Tr[ns(na)] (up, down, total) =   4.98146  1.96369  6.94514
   spin  1
    eigenvalues: 
  0.995  0.996  0.996  0.997  0.998
    eigenvectors:
  0.834  0.013  0.053  0.098  0.002
  0.018  0.000  0.318  0.011  0.653
  0.065  0.037  0.568  0.001  0.329
  0.026  0.809  0.053  0.105  0.008
  0.057  0.141  0.008  0.786  0.008
    occupations:
  0.996 -0.000 -0.000  0.000 -0.000
 -0.000  0.997 -0.001 -0.000 -0.000
 -0.000 -0.001  0.996  0.000  0.000
  0.000 -0.000  0.000  0.996 -0.000
 -0.000 -0.000  0.000 -0.000  0.997
   spin  2
    eigenvalues: 
  0.359  0.366  0.396  0.418  0.425
    eigenvectors:
  0.073  0.141  0.000  0.645  0.141
  0.523  0.233  0.240  0.002  0.002
  0.069  0.213  0.702  0.013  0.003
  0.033  0.074  0.014  0.295  0.584
  0.301  0.339  0.044  0.045  0.271
    occupations:
  0.407  0.002  0.005 -0.006  0.021
  0.002  0.370  0.014 -0.001 -0.007
  0.005  0.014  0.387  0.002 -0.001
 -0.006 -0.001  0.002  0.416  0.017
  0.021 -0.007 -0.001  0.017  0.384
atomic mag. moment =     3.017768
atom   14   Tr[ns(na)] (up, down, total) =   4.98140  1.96163  6.94303
   spin  1
    eigenvalues: 
  0.995  0.996  0.996  0.997  0.998
    eigenvectors:
  0.842  0.007  0.051  0.097  0.002
  0.035  0.031  0.273  0.000  0.661
  0.042  0.004  0.623  0.011  0.321
  0.002  0.879  0.012  0.091  0.016
  0.079  0.079  0.042  0.801  0.000
    occupations:
  0.995  0.000  0.000  0.000 -0.000
  0.000  0.997 -0.001  0.000  0.000
  0.000 -0.001  0.996 -0.000 -0.000
  0.000  0.000 -0.000  0.996 -0.000
 -0.000  0.000 -0.000 -0.000  0.997
   spin  2
    eigenvalues: 
  0.360  0.366  0.396  0.416  0.424
    eigenvectors:
  0.075  0.133  0.000  0.615  0.176
  0.248  0.356  0.384  0.005  0.006
  0.344  0.089  0.561  0.007  0.000
  0.040  0.022  0.003  0.119  0.815
  0.292  0.400  0.052  0.255  0.002
    occupations:
  0.407 -0.004 -0.004 -0.009  0.020
 -0.004  0.376  0.016  0.003  0.001
 -0.004  0.016  0.381 -0.004  0.005
 -0.009  0.003 -0.004  0.419  0.011
  0.020  0.001  0.005  0.011  0.379
atomic mag. moment =     3.019776
atom   15   Tr[ns(na)] (up, down, total) =   4.98284  2.07819  7.06104
   spin  1
    eigenvalues: 
  0.996  0.996  0.996  0.997  0.998
    eigenvectors:
  0.000  0.798  0.000  0.186  0.016
  0.013  0.002  0.324  0.105  0.555
  0.025  0.002  0.637  0.055  0.280
  0.854  0.023  0.033  0.073  0.017
  0.108  0.175  0.005  0.580  0.132
    occupations:
  0.996 -0.000  0.000  0.000 -0.001
 -0.000  0.997 -0.001  0.000 -0.000
  0.000 -0.001  0.997  0.000  0.000
  0.000  0.000  0.000  0.996 -0.000
 -0.001 -0.000  0.000 -0.000  0.997
   spin  2
    eigenvalues: 
  0.368  0.371  0.438  0.449  0.452
    eigenvectors:
  0.017  0.159  0.000  0.060  0.764
  0.598  0.065  0.076  0.241  0.020
  0.301  0.035  0.144  0.482  0.037
  0.010  0.081  0.694  0.214  0.000
  0.074  0.660  0.086  0.002  0.179
    occupations:
  0.437 -0.000 -0.000 -0.010  0.029
 -0.000  0.395  0.037 -0.002 -0.002
 -0.000  0.037  0.421 -0.004 -0.001
 -0.010 -0.002 -0.004  0.435  0.018
  0.029 -0.002 -0.001  0.018  0.391
atomic mag. moment =     2.904651
atom   16   Tr[ns(na)] (up, down, total) =   4.98254  1.99723  6.97977
   spin  1
    eigenvalues: 
  0.995  0.996  0.996  0.997  0.998
    eigenvectors:
  0.000  0.760  0.000  0.202  0.037
  0.004  0.002  0.335  0.160  0.498
  0.010  0.002  0.651  0.086  0.252
  0.872  0.029  0.012  0.064  0.023
  0.113  0.207  0.002  0.488  0.190
    occupations:
  0.996 -0.000  0.000  0.000 -0.000
 -0.000  0.997 -0.001 -0.000  0.000
  0.000 -0.001  0.997 -0.000 -0.000
  0.000 -0.000 -0.000  0.996 -0.000
 -0.000  0.000 -0.000 -0.000  0.997
   spin  2
    eigenvalues: 
  0.360  0.361  0.416  0.422  0.438
    eigenvectors:
  0.009  0.168  0.000  0.000  0.823
  0.651  0.011  0.334  0.002  0.002
  0.330  0.006  0.659  0.005  0.000
  0.001  0.090  0.006  0.877  0.025
  0.009  0.725  0.000  0.116  0.150
    occupations:
  0.425 -0.003  0.002 -0.010  0.027
 -0.003  0.379  0.026  0.000 -0.001
  0.002  0.026  0.397  0.000  0.001
 -0.010  0.000  0.000  0.417  0.015
  0.027 -0.001  0.001  0.015  0.380
atomic mag. moment =     2.985311
atom   17   Tr[ns(na)] (up, down, total) =   4.97082  1.62074  6.59156
   spin  1
    eigenvalues: 
  0.990  0.991  0.995  0.996  0.998
    eigenvectors:
  0.664  0.208  0.128  0.000  0.000
  0.175  0.488  0.004  0.000  0.333
  0.086  0.245  0.002  0.000  0.667
  0.008  0.007  0.101  0.883  0.000
  0.066  0.052  0.766  0.116  0.000
    occupations:
  0.991 -0.000  0.000  0.001 -0.002
 -0.000  0.993  0.003 -0.000  0.000
  0.000  0.003  0.996  0.000 -0.000
  0.001 -0.000  0.000  0.996  0.000
 -0.002  0.000 -0.000  0.000  0.995
   spin  2
    eigenvalues: 
  0.207  0.313  0.324  0.338  0.439
    eigenvectors:
  0.000  0.033  0.000  0.040  0.927
  0.333  0.128  0.000  0.532  0.007
  0.667  0.064  0.000  0.265  0.004
  0.000  0.111  0.860  0.022  0.007
  0.000  0.664  0.140  0.141  0.056
    occupations:
  0.431 -0.006  0.005 -0.009  0.027
 -0.006  0.292 -0.060  0.003 -0.010
  0.005 -0.060  0.249 -0.004  0.006
 -0.009  0.003 -0.004  0.324  0.000
  0.027 -0.010  0.006  0.000  0.325
atomic mag. moment =     3.350078
atom   18   Tr[ns(na)] (up, down, total) =   4.97040  1.59957  6.56997
   spin  1
    eigenvalues: 
  0.986  0.993  0.996  0.997  0.998
    eigenvectors:
  0.138  0.286  0.038  0.094  0.444
  0.119  0.014  0.009  0.620  0.238
  0.710  0.110  0.035  0.144  0.001
  0.010  0.465  0.373  0.010  0.141
  0.024  0.125  0.544  0.132  0.176
    occupations:
  0.995 -0.001 -0.003  0.002 -0.002
 -0.001  0.996 -0.003 -0.000 -0.000
 -0.003 -0.003  0.989  0.000 -0.001
  0.002 -0.000  0.000  0.995  0.001
 -0.002 -0.000 -0.001  0.001  0.996
   spin  2
    eigenvalues: 
  0.245  0.276  0.321  0.357  0.400
    eigenvectors:
  0.050  0.737  0.002  0.052  0.158
  0.783  0.004  0.096  0.041  0.076
  0.091  0.226  0.008  0.434  0.240
  0.068  0.001  0.654  0.204  0.073
  0.009  0.031  0.239  0.268  0.453
    occupations:
  0.299  0.023  0.034  0.001  0.025
  0.023  0.269  0.037  0.020  0.005
  0.034  0.037  0.339 -0.007  0.012
  0.001  0.020 -0.007  0.329  0.024
  0.025  0.005  0.012  0.024  0.364
atomic mag. moment =     3.370823
atom   19   Tr[ns(na)] (up, down, total) =   4.97042  1.59700  6.56742
   spin  1
    eigenvalues: 
  0.986  0.993  0.996  0.997  0.998
    eigenvectors:
  0.138  0.286  0.039  0.090  0.446
  0.461  0.075  0.042  0.388  0.033
  0.367  0.049  0.000  0.385  0.198
  0.000  0.095  0.883  0.021  0.001
  0.033  0.494  0.036  0.115  0.322
    occupations:
  0.995  0.002  0.002 -0.000 -0.002
  0.002  0.992 -0.005 -0.000  0.001
  0.002 -0.005  0.993 -0.000  0.001
 -0.000 -0.000 -0.000  0.996 -0.001
 -0.002  0.001  0.001 -0.001  0.995
   spin  2
    eigenvalues: 
  0.245  0.276  0.320  0.357  0.399
    eigenvectors:
  0.056  0.731  0.004  0.052  0.158
  0.325  0.231  0.001  0.301  0.142
  0.540  0.007  0.099  0.170  0.183
  0.021  0.016  0.112  0.457  0.394
  0.058  0.015  0.784  0.020  0.123
    occupations:
  0.298 -0.024 -0.033 -0.016  0.019
 -0.024  0.308  0.051 -0.004 -0.015
 -0.033  0.051  0.300  0.018  0.004
 -0.016 -0.004  0.018  0.366 -0.023
  0.019 -0.015  0.004 -0.023  0.326
atomic mag. moment =     3.373421
atom   20   Tr[ns(na)] (up, down, total) =   4.98268  1.09232  6.07500
   spin  1
    eigenvalues: 
  0.995  0.996  0.997  0.997  0.998
    eigenvectors:
  0.919  0.000  0.034  0.000  0.047
  0.021  0.013  0.033  0.325  0.608
  0.010  0.028  0.016  0.634  0.312
  0.005  0.852  0.103  0.037  0.003
  0.046  0.106  0.814  0.005  0.029
    occupations:
  0.995  0.000 -0.000  0.000 -0.000
  0.000  0.997 -0.000  0.000  0.000
 -0.000 -0.000  0.997  0.000  0.000
  0.000  0.000  0.000  0.996 -0.000
 -0.000  0.000  0.000 -0.000  0.997
   spin  2
    eigenvalues: 
  0.152  0.209  0.209  0.239  0.283
    eigenvectors:
  0.000  0.803  0.189  0.000  0.008
  0.330  0.131  0.532  0.004  0.004
  0.663  0.064  0.266  0.004  0.002
  0.006  0.000  0.002  0.887  0.104
  0.001  0.002  0.010  0.106  0.881
    occupations:
  0.209 -0.001  0.000  0.002 -0.006
 -0.001  0.191 -0.027 -0.006  0.003
  0.000 -0.027  0.171 -0.004 -0.005
  0.002 -0.006 -0.004  0.243 -0.013
 -0.006  0.003 -0.005 -0.013  0.278
atomic mag. moment =     3.890367
N of occupied +U levels = 133.6490324
 --- exit write_ns ---

     negative rho (up, down):  0.000E+00 0.312E-03
 --- in v_hubbard ---
Hubbard energy    0.0000
 -------

     total cpu time spent up to now is      122.7 secs

     total energy              =   -6648.24294271 Ry
     Harris-Foulkes estimate   =   -6638.64490624 Ry
     estimated scf accuracy    <      27.87640691 Ry

     total magnetization       =    73.22 Bohr mag/cell
     absolute magnetization    =    74.43 Bohr mag/cell

     iteration #  2     ecut=    95.00 Ry     beta=0.50
     Davidson diagonalization with overlap
     ethr =  8.50E-03,  avg # of iterations =  1.0
 --- enter write_ns ---
 LDA+U parameters:
U( 1)     =  0.00000000
alpha( 1) =  0.00000000
atom    1   Tr[ns(na)] (up, down, total) =   4.97856  1.83242  6.81098
   spin  1
    eigenvalues: 
  0.994  0.996  0.996  0.996  0.997
    eigenvectors:
  0.828  0.171  0.000  0.000  0.001
  0.001  0.000  0.313  0.019  0.667
  0.000  0.000  0.629  0.039  0.332
  0.019  0.086  0.052  0.843  0.000
  0.152  0.743  0.006  0.099  0.000
    occupations:
  0.994 -0.000  0.000  0.000 -0.001
 -0.000  0.997 -0.001  0.000 -0.000
  0.000 -0.001  0.996 -0.000  0.000
  0.000  0.000 -0.000  0.996  0.000
 -0.001 -0.000  0.000  0.000  0.995
   spin  2
    eigenvalues: 
  0.292  0.294  0.340  0.442  0.465
    eigenvectors:
  0.000  0.000  0.726  0.274  0.000
  0.681  0.319  0.000  0.000  0.000
  0.319  0.681  0.000  0.000  0.000
  0.000  0.000  0.030  0.081  0.889
  0.000  0.000  0.244  0.645  0.111
    occupations:
  0.368 -0.000 -0.000 -0.015  0.043
 -0.000  0.293  0.001 -0.000 -0.000
 -0.000  0.001  0.293  0.000 -0.000
 -0.015 -0.000  0.000  0.459  0.016
  0.043 -0.000 -0.000  0.016  0.420
atomic mag. moment =     3.146136
atom    2   Tr[ns(na)] (up, down, total) =   4.97875  1.83226  6.81101
   spin  1
    eigenvalues: 
  0.994  0.996  0.996  0.996  0.997
    eigenvectors:
  0.789  0.196  0.000  0.015  0.000
  0.000  0.007  0.001  0.314  0.678
  0.003  0.019  0.000  0.657  0.322
  0.036  0.131  0.833  0.001  0.000
  0.172  0.647  0.166  0.014  0.000
    occupations:
  0.995 -0.000 -0.000  0.000 -0.000
 -0.000  0.997 -0.001  0.000  0.000
 -0.000 -0.001  0.996 -0.000 -0.000
  0.000  0.000 -0.000  0.996  0.000
 -0.000  0.000 -0.000  0.000  0.995
   spin  2
    eigenvalues: 
  0.292  0.293  0.340  0.442  0.465
    eigenvectors:
  0.000  0.000  0.722  0.278  0.000
  0.945  0.055  0.000  0.000  0.000
  0.055  0.945  0.000  0.000  0.000
  0.000  0.000  0.031  0.076  0.892
  0.000  0.000  0.246  0.646  0.108
    occupations:
  0.368  0.000  0.000 -0.015  0.043
  0.000  0.292  0.000  0.000  0.000
  0.000  0.000  0.293 -0.000  0.000
 -0.015  0.000 -0.000  0.459  0.016
  0.043  0.000  0.000  0.016  0.419
atomic mag. moment =     3.146490
atom    3   Tr[ns(na)] (up, down, total) =   4.97872  1.83248  6.81120
   spin  1
    eigenvalues: 
  0.994  0.996  0.996  0.996  0.997
    eigenvectors:
  0.790  0.194  0.000  0.016  0.000
  0.002  0.011  0.001  0.330  0.655
  0.001  0.018  0.003  0.632  0.344
  0.014  0.052  0.923  0.010  0.000
  0.193  0.724  0.072  0.011  0.000
    occupations:
  0.995  0.000  0.000  0.000 -0.001
  0.000  0.997 -0.001 -0.000  0.000
  0.000 -0.001  0.996  0.000 -0.000
  0.000 -0.000  0.000  0.996  0.000
 -0.001  0.000 -0.000  0.000  0.995
   spin  2
    eigenvalues: 
  0.292  0.294  0.340  0.442  0.465
    eigenvectors:
  0.000  0.000  0.722  0.278  0.000
  0.575  0.425  0.000  0.000  0.000
  0.425  0.575  0.000  0.000  0.000
  0.000  0.000  0.031  0.076  0.893
  0.000  0.000  0.246  0.646  0.107
    occupations:
  0.368 -0.000  0.000 -0.015  0.043
 -0.000  0.293  0.001 -0.000 -0.000
  0.000  0.001  0.293 -0.000  0.000
 -0.015 -0.000 -0.000  0.459  0.016
  0.043 -0.000  0.000  0.016  0.419
atomic mag. moment =     3.146242
atom    4   Tr[ns(na)] (up, down, total) =   4.97870  1.83595  6.81465
   spin  1
    eigenvalues: 
  0.994  0.996  0.996  0.996  0.997
    eigenvectors:
  0.764  0.236  0.000  0.000  0.000
  0.000  0.000  0.001  0.333  0.666
  0.000  0.000  0.002  0.664  0.334
  0.027  0.077  0.894  0.002  0.000
  0.209  0.687  0.103  0.000  0.000
    occupations:
  0.995  0.000 -0.000  0.000 -0.000
  0.000  0.997 -0.001 -0.000  0.000
 -0.000 -0.001  0.996  0.000 -0.000
  0.000 -0.000  0.000  0.996  0.000
 -0.000  0.000 -0.000  0.000  0.995
   spin  2
    eigenvalues: 
  0.293  0.294  0.341  0.443  0.466
    eigenvectors:
  0.000  0.000  0.721  0.279  0.000
  0.701  0.299  0.000  0.000  0.000
  0.299  0.701  0.000  0.000  0.000
  0.000  0.000  0.031  0.083  0.886
  0.000  0.000  0.248  0.638  0.114
    occupations:
  0.369 -0.000  0.000 -0.015  0.043
 -0.000  0.293  0.001 -0.000  0.000
  0.000  0.001  0.294  0.000  0.000
 -0.015 -0.000  0.000  0.460  0.016
  0.043  0.000  0.000  0.016  0.420
atomic mag. moment =     3.142758
atom    5   Tr[ns(na)] (up, down, total) =   4.95242  2.03388  6.98629
   spin  1
    eigenvalues: 
  0.988  0.990  0.991  0.991  0.992
    eigenvectors:
  0.994  0.002  0.002  0.001  0.000
  0.000  0.286  0.009  0.000  0.704
  0.002  0.707  0.000  0.004  0.287
  0.003  0.004  0.780  0.208  0.005
  0.000  0.001  0.208  0.787  0.004
    occupations:
  0.988  0.000  0.000 -0.000  0.000
  0.000  0.991 -0.001  0.000  0.000
  0.000 -0.001  0.991 -0.000 -0.000
 -0.000  0.000 -0.000  0.991 -0.000
  0.000  0.000 -0.000 -0.000  0.991
   spin  2
    eigenvalues: 
  0.357  0.360  0.429  0.431  0.457
    eigenvectors:
  0.000  0.328  0.000  0.671  0.000
  0.666  0.000  0.000  0.000  0.334
  0.334  0.000  0.000  0.000  0.666
  0.000  0.075  0.882  0.043  0.000
  0.000  0.597  0.118  0.285  0.000
    occupations:
  0.408 -0.000 -0.000 -0.011  0.032
 -0.000  0.391  0.047  0.000 -0.000
 -0.000  0.047  0.424  0.000 -0.000
 -0.011  0.000  0.000  0.424  0.014
  0.032 -0.000 -0.000  0.014  0.388
atomic mag. moment =     2.918539
atom    6   Tr[ns(na)] (up, down, total) =   4.95242  2.03311  6.98553
   spin  1
    eigenvalues: 
  0.988  0.990  0.991  0.991  0.992
    eigenvectors:
  0.997  0.002  0.000  0.001  0.000
  0.001  0.383  0.003  0.001  0.611
  0.001  0.613  0.004  0.000  0.382
  0.000  0.000  0.942  0.050  0.008
  0.001  0.002  0.049  0.948  0.000
    occupations:
  0.988 -0.000 -0.000  0.000  0.000
 -0.000  0.991 -0.001 -0.000 -0.000
 -0.000 -0.001  0.991  0.000 -0.000
  0.000 -0.000  0.000  0.991 -0.000
  0.000 -0.000 -0.000 -0.000  0.991
   spin  2
    eigenvalues: 
  0.357  0.360  0.429  0.430  0.457
    eigenvectors:
  0.001  0.328  0.005  0.667  0.000
  0.666  0.001  0.000  0.000  0.332
  0.332  0.001  0.000  0.000  0.668
  0.000  0.074  0.853  0.073  0.000
  0.001  0.596  0.143  0.260  0.000
    occupations:
  0.407  0.000  0.000 -0.011  0.031
  0.000  0.390  0.047 -0.000  0.000
  0.000  0.047  0.424  0.000 -0.000
 -0.011 -0.000  0.000  0.424  0.014
  0.031  0.000 -0.000  0.014  0.388
atomic mag. moment =     2.919314
atom    7   Tr[ns(na)] (up, down, total) =   4.95225  2.03063  6.98288
   spin  1
    eigenvalues: 
  0.989  0.991  0.991  0.991  0.991
    eigenvectors:
  0.980  0.000  0.018  0.001  0.001
  0.004  0.345  0.035  0.001  0.616
  0.001  0.654  0.024  0.000  0.320
  0.001  0.000  0.146  0.848  0.005
  0.014  0.000  0.778  0.150  0.058
    occupations:
  0.989  0.000 -0.000  0.000 -0.000
  0.000  0.991 -0.000 -0.000  0.000
 -0.000 -0.000  0.991  0.000 -0.000
  0.000 -0.000  0.000  0.991  0.000
 -0.000  0.000 -0.000  0.000  0.991
   spin  2
    eigenvalues: 
  0.357  0.360  0.429  0.429  0.455
    eigenvectors:
  0.000  0.329  0.014  0.657  0.000
  0.666  0.000  0.000  0.000  0.334
  0.334  0.000  0.000  0.000  0.666
  0.000  0.074  0.923  0.003  0.000
  0.000  0.597  0.063  0.340  0.000
    occupations:
  0.407 -0.000 -0.000 -0.011  0.031
 -0.000  0.390  0.046  0.000  0.000
 -0.000  0.046  0.422  0.000  0.000
 -0.011  0.000  0.000  0.424  0.015
  0.031  0.000  0.000  0.015  0.388
atomic mag. moment =     2.921614
atom    8   Tr[ns(na)] (up, down, total) =   4.95060  2.02873  6.97933
   spin  1
    eigenvalues: 
  0.987  0.990  0.991  0.991  0.991
    eigenvectors:
  0.990  0.000  0.010  0.000  0.000
  0.000  0.347  0.066  0.001  0.586
  0.000  0.653  0.044  0.001  0.301
  0.001  0.000  0.092  0.905  0.003
  0.009  0.000  0.788  0.093  0.110
    occupations:
  0.987 -0.000  0.000  0.000 -0.000
 -0.000  0.991 -0.000  0.000 -0.000
  0.000 -0.000  0.991 -0.000  0.000
  0.000  0.000 -0.000  0.991  0.000
 -0.000 -0.000  0.000  0.000  0.991
   spin  2
    eigenvalues: 
  0.357  0.359  0.428  0.429  0.455
    eigenvectors:
  0.003  0.323  0.002  0.673  0.000
  0.662  0.005  0.000  0.000  0.333
  0.330  0.003  0.000  0.000  0.667
  0.001  0.075  0.868  0.057  0.000
  0.005  0.595  0.130  0.271  0.000
    occupations:
  0.406  0.000 -0.000 -0.011  0.031
  0.000  0.390  0.046 -0.000 -0.000
 -0.000  0.046  0.422 -0.000 -0.000
 -0.011 -0.000 -0.000  0.423  0.014
  0.031 -0.000 -0.000  0.014  0.387
atomic mag. moment =     2.921871
atom    9   Tr[ns(na)] (up, down, total) =   4.95411  2.05741  7.01151
   spin  1
    eigenvalues: 
  0.990  0.990  0.991  0.991  0.992
    eigenvectors:
  0.000  0.657  0.175  0.169  0.000
  0.326  0.029  0.140  0.500  0.005
  0.664  0.012  0.069  0.250  0.005
  0.008  0.032  0.067  0.013  0.880
  0.001  0.269  0.550  0.069  0.111
    occupations:
  0.990  0.000 -0.000  0.000 -0.001
  0.000  0.991 -0.001 -0.000 -0.000
 -0.000 -0.001  0.990 -0.000 -0.000
  0.000 -0.000 -0.000  0.992  0.000
 -0.001 -0.000 -0.000  0.000  0.991
   spin  2
    eigenvalues: 
  0.371  0.376  0.435  0.436  0.440
    eigenvectors:
  0.000  0.255  0.001  0.003  0.741
  0.669  0.000  0.060  0.269  0.002
  0.331  0.000  0.124  0.541  0.003
  0.000  0.083  0.710  0.174  0.032
  0.000  0.662  0.104  0.013  0.221
    occupations:
  0.423  0.000  0.000 -0.009  0.026
  0.000  0.392  0.031  0.000  0.000
  0.000  0.031  0.414  0.000  0.000
 -0.009  0.000  0.000  0.430  0.013
  0.026  0.000  0.000  0.013  0.397
atomic mag. moment =     2.896702
atom   10   Tr[ns(na)] (up, down, total) =   4.95064  2.03509  6.98572
   spin  1
    eigenvalues: 
  0.988  0.990  0.991  0.991  0.991
    eigenvectors:
  0.063  0.402  0.101  0.368  0.066
  0.217  0.007  0.650  0.121  0.005
  0.714  0.045  0.142  0.099  0.001
  0.001  0.091  0.006  0.001  0.901
  0.006  0.455  0.101  0.411  0.027
    occupations:
  0.990  0.000  0.001  0.000 -0.000
  0.000  0.990 -0.001  0.000  0.000
  0.001 -0.001  0.989  0.000  0.000
  0.000  0.000  0.000  0.991  0.000
 -0.000  0.000  0.000  0.000  0.990
   spin  2
    eigenvalues: 
  0.369  0.372  0.428  0.431  0.435
    eigenvectors:
  0.001  0.245  0.000  0.005  0.749
  0.668  0.000  0.330  0.002  0.001
  0.330  0.003  0.663  0.003  0.001
  0.000  0.083  0.007  0.902  0.008
  0.001  0.668  0.001  0.088  0.242
    occupations:
  0.419  0.001  0.001 -0.009  0.026
  0.001  0.389  0.028  0.000 -0.001
  0.001  0.028  0.408  0.000 -0.001
 -0.009  0.000  0.000  0.426  0.014
  0.026 -0.001 -0.001  0.014  0.392
atomic mag. moment =     2.915550
atom   11   Tr[ns(na)] (up, down, total) =   4.95077  2.03736  6.98813
   spin  1
    eigenvalues: 
  0.988  0.990  0.991  0.991  0.991
    eigenvectors:
  0.062  0.414  0.106  0.355  0.063
  0.414  0.031  0.380  0.175  0.000
  0.518  0.021  0.400  0.055  0.007
  0.001  0.035  0.074  0.178  0.713
  0.005  0.500  0.040  0.237  0.218
    occupations:
  0.990 -0.000 -0.000  0.000 -0.001
 -0.000  0.990 -0.001 -0.000 -0.000
 -0.000 -0.001  0.989  0.000 -0.000
  0.000 -0.000  0.000  0.991  0.000
 -0.001 -0.000 -0.000  0.000  0.990
   spin  2
    eigenvalues: 
  0.369  0.372  0.429  0.432  0.435
    eigenvectors:
  0.000  0.246  0.004  0.003  0.747
  0.664  0.002  0.329  0.003  0.002
  0.335  0.000  0.653  0.007  0.004
  0.000  0.084  0.005  0.859  0.053
  0.000  0.668  0.010  0.128  0.194
    occupations:
  0.420 -0.001 -0.001 -0.009  0.026
 -0.001  0.389  0.028 -0.000  0.001
 -0.001  0.028  0.409 -0.001  0.001
 -0.009 -0.000 -0.001  0.427  0.014
  0.026  0.001  0.001  0.014  0.393
atomic mag. moment =     2.913409
atom   12   Tr[ns(na)] (up, down, total) =   4.95380  2.05834  7.01215
   spin  1
    eigenvalues: 
  0.989  0.990  0.991  0.992  0.992
    eigenvectors:
  0.000  0.720  0.000  0.272  0.007
  0.334  0.006  0.000  0.000  0.660
  0.666  0.004  0.001  0.000  0.329
  0.001  0.030  0.873  0.095  0.002
  0.000  0.240  0.125  0.633  0.002
    occupations:
  0.990 -0.000  0.000  0.000 -0.001
 -0.000  0.991 -0.001  0.000 -0.000
  0.000 -0.001  0.990  0.000  0.000
  0.000  0.000  0.000  0.991  0.000
 -0.001 -0.000  0.000  0.000  0.991
   spin  2
    eigenvalues: 
  0.372  0.376  0.434  0.435  0.441
    eigenvectors:
  0.003  0.237  0.000  0.000  0.760
  0.659  0.009  0.242  0.090  0.000
  0.328  0.005  0.483  0.184  0.000
  0.001  0.084  0.244  0.646  0.024
  0.009  0.666  0.030  0.079  0.215
    occupations:
  0.426  0.000 -0.000 -0.009  0.026
  0.000  0.393  0.030 -0.000 -0.000
 -0.000  0.030  0.414 -0.001 -0.000
 -0.009 -0.000 -0.001  0.430  0.014
  0.026 -0.000 -0.000  0.014  0.396
atomic mag. moment =     2.895464
atom   13   Tr[ns(na)] (up, down, total) =   4.95388  2.04350  6.99738
   spin  1
    eigenvalues: 
  0.989  0.990  0.991  0.992  0.992
    eigenvectors:
  0.035  0.944  0.000  0.020  0.001
  0.698  0.025  0.154  0.002  0.121
  0.004  0.005  0.544  0.016  0.431
  0.236  0.016  0.224  0.096  0.427
  0.027  0.010  0.077  0.867  0.020
    occupations:
  0.990 -0.000 -0.000  0.000  0.000
 -0.000  0.990 -0.000  0.001  0.000
 -0.000 -0.000  0.991 -0.001 -0.000
  0.000  0.001 -0.001  0.991 -0.000
  0.000  0.000 -0.000 -0.000  0.992
   spin  2
    eigenvalues: 
  0.363  0.370  0.429  0.433  0.447
    eigenvectors:
  0.132  0.192  0.467  0.061  0.148
  0.416  0.318  0.060  0.000  0.205
  0.104  0.165  0.244  0.001  0.485
  0.036  0.042  0.005  0.912  0.005
  0.312  0.282  0.224  0.026  0.157
    occupations:
  0.412 -0.002 -0.002 -0.010  0.030
 -0.002  0.387  0.033  0.001 -0.009
 -0.002  0.033  0.421  0.000 -0.006
 -0.010  0.001  0.000  0.428  0.015
  0.030 -0.009 -0.006  0.015  0.395
atomic mag. moment =     2.910376
atom   14   Tr[ns(na)] (up, down, total) =   4.95395  2.04499  6.99894
   spin  1
    eigenvalues: 
  0.989  0.990  0.991  0.992  0.992
    eigenvectors:
  0.033  0.945  0.000  0.021  0.001
  0.116  0.013  0.315  0.008  0.548
  0.588  0.016  0.377  0.007  0.011
  0.231  0.001  0.302  0.105  0.362
  0.032  0.026  0.006  0.858  0.078
    occupations:
  0.990  0.000  0.000 -0.000  0.000
  0.000  0.991  0.000 -0.001 -0.000
  0.000  0.000  0.990  0.001  0.000
 -0.000 -0.001  0.001  0.991 -0.000
  0.000 -0.000  0.000 -0.000  0.992
   spin  2
    eigenvalues: 
  0.364  0.371  0.430  0.434  0.448
    eigenvectors:
  0.135  0.189  0.499  0.028  0.150
  0.269  0.329  0.142  0.005  0.256
  0.248  0.159  0.154  0.005  0.435
  0.041  0.030  0.067  0.774  0.088
  0.307  0.295  0.139  0.188  0.071
    occupations:
  0.412  0.001  0.003 -0.011  0.030
  0.001  0.397  0.037 -0.001  0.002
  0.003  0.037  0.412 -0.006  0.009
 -0.011 -0.001 -0.006  0.430  0.013
  0.030  0.002  0.009  0.013  0.394
atomic mag. moment =     2.908960
atom   15   Tr[ns(na)] (up, down, total) =   4.94614  2.03672  6.98286
   spin  1
    eigenvalues: 
  0.984  0.988  0.990  0.992  0.993
    eigenvectors:
  0.000  0.431  0.000  0.310  0.259
  0.336  0.027  0.000  0.180  0.458
  0.664  0.014  0.000  0.090  0.231
  0.000  0.057  0.889  0.048  0.006
  0.000  0.471  0.111  0.372  0.046
    occupations:
  0.990  0.001 -0.001  0.001 -0.002
  0.001  0.990 -0.004 -0.000  0.000
 -0.001 -0.004  0.987  0.000 -0.000
  0.001 -0.000  0.000  0.990  0.000
 -0.002  0.000 -0.000  0.000  0.990
   spin  2
    eigenvalues: 
  0.354  0.359  0.432  0.439  0.453
    eigenvectors:
  0.020  0.211  0.000  0.770  0.000
  0.604  0.062  0.000  0.000  0.334
  0.302  0.031  0.000  0.000  0.666
  0.008  0.077  0.890  0.025  0.000
  0.065  0.620  0.110  0.205  0.000
    occupations:
  0.420  0.000 -0.000 -0.011  0.032
  0.000  0.387  0.046  0.001 -0.001
 -0.000  0.046  0.420 -0.000  0.001
 -0.011  0.001 -0.000  0.426  0.017
  0.032 -0.001  0.001  0.017  0.383
atomic mag. moment =     2.909418
atom   16   Tr[ns(na)] (up, down, total) =   4.95316  2.03120  6.98436
   spin  1
    eigenvalues: 
  0.988  0.989  0.991  0.992  0.994
    eigenvectors:
  0.000  0.226  0.000  0.317  0.457
  0.329  0.016  0.006  0.327  0.323
  0.656  0.009  0.010  0.164  0.161
  0.014  0.084  0.874  0.022  0.006
  0.002  0.664  0.110  0.171  0.053
    occupations:
  0.992 -0.001  0.000  0.001 -0.002
 -0.001  0.991 -0.002 -0.000 -0.000
  0.000 -0.002  0.990 -0.000  0.000
  0.001 -0.000 -0.000  0.990  0.000
 -0.002 -0.000  0.000  0.000  0.990
   spin  2
    eigenvalues: 
  0.357  0.359  0.427  0.440  0.449
    eigenvectors:
  0.142  0.106  0.000  0.751  0.000
  0.346  0.317  0.012  0.002  0.323
  0.174  0.160  0.025  0.001  0.640
  0.038  0.046  0.853  0.030  0.032
  0.300  0.371  0.110  0.215  0.005
    occupations:
  0.419 -0.004  0.002 -0.012  0.033
 -0.004  0.388  0.042 -0.002 -0.002
  0.002  0.042  0.418 -0.003 -0.000
 -0.012 -0.002 -0.003  0.422  0.015
  0.033 -0.002 -0.000  0.015  0.384
atomic mag. moment =     2.921964
atom   17   Tr[ns(na)] (up, down, total) =   4.94501  2.05459  6.99959
   spin  1
    eigenvalues: 
  0.981  0.986  0.991  0.992  0.996
    eigenvectors:
  0.161  0.817  0.022  0.000  0.000
  0.560  0.104  0.003  0.012  0.322
  0.279  0.053  0.002  0.023  0.643
  0.000  0.003  0.105  0.861  0.031
  0.000  0.024  0.868  0.104  0.004
    occupations:
  0.985 -0.002  0.001  0.000 -0.001
 -0.002  0.986  0.007 -0.001  0.000
  0.001  0.007  0.991 -0.001 -0.000
  0.000 -0.001 -0.001  0.992  0.000
 -0.001  0.000 -0.000  0.000  0.991
   spin  2
    eigenvalues: 
  0.277  0.368  0.398  0.499  0.512
    eigenvectors:
  0.000  0.017  0.049  0.000  0.934
  0.333  0.260  0.401  0.000  0.006
  0.666  0.131  0.200  0.000  0.003
  0.000  0.067  0.039  0.888  0.007
  0.000  0.526  0.312  0.112  0.051
    occupations:
  0.504 -0.006  0.005 -0.010  0.028
 -0.006  0.350 -0.052  0.003 -0.014
  0.005 -0.052  0.314 -0.007  0.008
 -0.010  0.003 -0.007  0.487  0.036
  0.028 -0.014  0.008  0.036  0.399
atomic mag. moment =     2.890420
atom   18   Tr[ns(na)] (up, down, total) =   4.94301  2.06481  7.00783
   spin  1
    eigenvalues: 
  0.971  0.989  0.992  0.996  0.996
    eigenvectors:
  0.135  0.209  0.046  0.493  0.117
  0.114  0.010  0.002  0.109  0.765
  0.713  0.091  0.035  0.097  0.064
  0.006  0.582  0.300  0.092  0.020
  0.032  0.108  0.617  0.208  0.034
    occupations:
  0.991 -0.003 -0.007  0.003 -0.003
 -0.003  0.993 -0.007  0.000 -0.001
[...]
     0.0294   0.0191   0.0097   0.0093   0.0084   0.0083   0.0043   0.0022
     0.0018   0.0015   0.0013   0.0009   0.0002   0.0002   0.0001   0.0001
     0.0000   0.0000   0.0000   0.0000   0.0000   0.0000   0.0000   0.0000
     0.0000   0.0000   0.0000   0.0000   0.0000   0.0000   0.0000   0.0000
     0.0000   0.0000   0.0000   0.0000   0.0000   0.0000   0.0000   0.0000
     0.0000   0.0000   0.0000   0.0000   0.0000   0.0000   0.0000   0.0000
     0.0000   0.0000

     the Fermi energy is     7.2230 ev

!    total energy              =   -6653.67998342 Ry
     Harris-Foulkes estimate   =   -6653.67998342 Ry
     estimated scf accuracy    <          5.7E-09 Ry

     total all-electron energy =    -51711.711822 Ry

     The total energy is the sum of the following terms:

     one-electron contribution =  -29518.66413276 Ry
     hartree contribution      =   14845.16510285 Ry
     xc contribution           =    -704.91406239 Ry
     ewald contribution        =   10291.78024939 Ry
     Hubbard energy            =       0.00000000 Ry
     one-center paw contrib.   =   -1567.17695245 Ry
     smearing contrib. (-TS)   =       0.12981194 Ry

     total magnetization       =    45.44 Bohr mag/cell
     absolute magnetization    =    47.76 Bohr mag/cell

     convergence has been achieved in  28 iterations

     Forces acting on atoms (Ry/au):


     negative rho (up, down):  0.419E-04 0.403E-03
     atom    1 type  1   force =     0.00002223   -0.00001522    0.00172552
     atom    2 type  1   force =    -0.00009713   -0.00005361    0.00284379
     atom    3 type  1   force =     0.00002014    0.00010866    0.00284264
     atom    4 type  1   force =    -0.00003564    0.00002604    0.00164186
     atom    5 type  1   force =    -0.00024036   -0.00007300    0.00238677
     atom    6 type  1   force =    -0.00001241    0.00024616    0.00238728
     atom    7 type  1   force =     0.00007602   -0.00006258    0.00072990
     atom    8 type  1   force =    -0.00006847    0.00005096   -0.00071905
     atom    9 type  1   force =     0.00005761    0.00000494   -0.00006926
     atom   10 type  1   force =    -0.00034970   -0.00085140   -0.00654800
     atom   11 type  1   force =     0.00073297    0.00067508   -0.00655765
     atom   12 type  1   force =    -0.00002047    0.00006376   -0.00061150
     atom   13 type  1   force =    -0.00001046   -0.00005085    0.00001965
     atom   14 type  1   force =     0.00000080   -0.00001042    0.00001855
     atom   15 type  1   force =    -0.00009770    0.00001307    0.00002261
     atom   16 type  1   force =     0.00002213   -0.00003940    0.00006512
     atom   17 type  1   force =    -0.00006498   -0.00000923   -0.00000047
     atom   18 type  1   force =    -0.00004871   -0.00000856   -0.00004017
     atom   19 type  1   force =    -0.00002648    0.00002835   -0.00008533
     atom   20 type  1   force =    -0.00000699    0.00000744   -0.00002040
     atom   21 type  2   force =     0.00004772   -0.00007844    0.00000724
     atom   22 type  3   force =     0.00003483    0.00000743   -0.00001453
     atom   23 type  3   force =     0.00006504    0.00002082   -0.00002456
     The non-local contrib.  to forces
     atom    1 type  1   force =     0.00013572   -0.00009612   -0.19660934
     atom    2 type  1   force =    -0.00021653    0.00018498   -0.19627291
     atom    3 type  1   force =    -0.00024954    0.00014060   -0.19626934
     atom    4 type  1   force =     0.00024991   -0.00017933   -0.19598129
     atom    5 type  1   force =    -0.00021477   -0.00007015   -0.03037603
     atom    6 type  1   force =    -0.00001875    0.00021123   -0.03037815
     atom    7 type  1   force =    -0.00048613    0.00033569   -0.02894444
     atom    8 type  1   force =     0.00009826   -0.00008116   -0.02788952
     atom    9 type  1   force =    -0.00047048    0.00029556    0.00150275
     atom   10 type  1   force =     0.00222239    0.00208876    0.00006833
     atom   11 type  1   force =    -0.00126647   -0.00284902    0.00009665
     atom   12 type  1   force =    -0.00037937    0.00022380    0.00050140
     atom   13 type  1   force =     0.00982338    0.01116799    0.01419274
     atom   14 type  1   force =    -0.00727666   -0.01291073    0.01419843
     atom   15 type  1   force =    -0.00117362    0.00084365    0.02615843
     atom   16 type  1   force =    -0.00187607    0.00137744    0.03067558
     atom   17 type  1   force =    -0.08392870    0.05927684    0.30494714
     atom   18 type  1   force =    -0.04477207   -0.05397893    0.17201772
     atom   19 type  1   force =     0.03601417    0.06015059    0.17197837
     atom   20 type  1   force =     0.04613045   -0.03255218    0.28057543
     atom   21 type  2   force =     0.18075216   -0.12805178   -0.23726117
     atom   22 type  3   force =    -0.02150227    0.01525636   -0.01791595
     atom   23 type  3   force =    -0.00376115    0.00265288   -0.02078888
     The ionic contribution  to forces
     atom    1 type  1   force =    -0.00048545    0.00017687 -324.28211826
     atom    2 type  1   force =    -0.00029084   -0.00045120 -324.28149423
     atom    3 type  1   force =     0.00054263    0.00033852 -324.28177484
     atom    4 type  1   force =     0.00022575   -0.00006522 -324.28110782
     atom    5 type  1   force =     0.00183564    0.00410146 -167.84123480
     atom    6 type  1   force =    -0.00274222   -0.00343766 -167.84118709
     atom    7 type  1   force =     0.00270871   -0.00249804 -167.85436422
     atom    8 type  1   force =    -0.00207019    0.00199151 -167.82857541
     atom    9 type  1   force =    -0.07928511    0.05800229   -9.24137271
     atom   10 type  1   force =    -0.08137253   -0.13768031   -9.22062465
     atom   11 type  1   force =     0.10566305    0.12580232   -9.22194047
     atom   12 type  1   force =     0.07118384   -0.04743343   -9.13916846
     atom   13 type  1   force =    -0.22972254   -0.19468643  150.42650235
     atom   14 type  1   force =     0.10477493    0.28004367  150.42931570
     atom   15 type  1   force =     0.06407295   -0.04655752  148.77142374
     atom   16 type  1   force =     0.09125320   -0.06786669  150.63683655
     atom   17 type  1   force =     0.17720544   -0.12864145  307.63079075
     atom   18 type  1   force =     0.48059719    0.34949610  304.89411754
     atom   19 type  1   force =    -0.16611628   -0.57338073  304.91091056
     atom   20 type  1   force =    -0.21055523    0.15147063  309.78283621
     atom   21 type  2   force =    -1.45762750    1.03247180  131.50969840
     atom   22 type  3   force =     0.71355006   -0.50728630   22.62393005
     atom   23 type  3   force =     0.41665450   -0.29391017   23.69860110
     The local contribution  to forces
     atom    1 type  1   force =     0.00037426   -0.00009866  324.48920280
     atom    2 type  1   force =     0.00042909    0.00021824  324.48937673
     atom    3 type  1   force =    -0.00027188   -0.00038978  324.48965236
     atom    4 type  1   force =    -0.00051974    0.00027584  324.48757400
     atom    5 type  1   force =    -0.00187132   -0.00410919  167.87572225
     atom    6 type  1   force =     0.00275104    0.00348405  167.87567695
     atom    7 type  1   force =    -0.00215545    0.00210641  167.88578473
     atom    8 type  1   force =     0.00190299   -0.00185870  167.85725564
     atom    9 type  1   force =     0.07984247   -0.05831909    9.23982491
     atom   10 type  1   force =     0.07885619    0.13476627    9.21431379
     atom   11 type  1   force =    -0.10367522   -0.12234556    9.21559398
     atom   12 type  1   force =    -0.07095979    0.04736281    9.13818691
     atom   13 type  1   force =     0.22029201    0.18403538 -150.44291563
     atom   14 type  1   force =    -0.09789470   -0.26770914 -150.44573550
     atom   15 type  1   force =    -0.06341422    0.04602586 -148.79784324
     atom   16 type  1   force =    -0.08899409    0.06620019 -150.66937114
     atom   17 type  1   force =    -0.09276139    0.06894249 -307.93686668
     atom   18 type  1   force =    -0.43510493   -0.29494902 -305.07081225
     atom   19 type  1   force =     0.12979110    0.51234658 -305.08761352
     atom   20 type  1   force =     0.16295751   -0.11787738 -310.07230403
     atom   21 type  2   force =     1.28451570   -0.90987696 -131.28199003
     atom   22 type  3   force =    -0.69201195    0.49203678  -22.60602354
     atom   23 type  3   force =    -0.41282679    0.29127711  -23.67783359
     The core correction contribution to forces
     atom    1 type  1   force =    -0.00000303    0.00000338   -0.00869605
     atom    2 type  1   force =    -0.00001945   -0.00000732   -0.00869624
     atom    3 type  1   force =     0.00000061    0.00002084   -0.00869601
     atom    4 type  1   force =     0.00000963   -0.00000583   -0.00878694
     atom    5 type  1   force =     0.00000982    0.00000523   -0.00171237
     atom    6 type  1   force =    -0.00000214   -0.00001172   -0.00171237
     atom    7 type  1   force =     0.00000867   -0.00000703   -0.00170904
     atom    8 type  1   force =     0.00000160   -0.00000049   -0.00146997
     atom    9 type  1   force =    -0.00004029    0.00003429    0.00008824
     atom   10 type  1   force =    -0.00006954   -0.00004683   -0.00023202
     atom   11 type  1   force =     0.00002605    0.00008798   -0.00023426
     atom   12 type  1   force =     0.00014571   -0.00009732   -0.00001766
     atom   13 type  1   force =    -0.00039293   -0.00055149    0.00231873
     atom   14 type  1   force =     0.00038595    0.00055006    0.00231838
     atom   15 type  1   force =     0.00042269   -0.00030364    0.00032129
     atom   16 type  1   force =    -0.00036701    0.00025515    0.00195245
     atom   17 type  1   force =    -0.00057255    0.00040722    0.00103692
     atom   18 type  1   force =    -0.00076661   -0.00057806    0.00457750
     atom   19 type  1   force =     0.00028710    0.00091057    0.00458058
     atom   20 type  1   force =     0.00145522   -0.00102950    0.00876687
     atom   21 type  2   force =    -0.00759720    0.00538198    0.00954351
     atom   22 type  3   force =     0.00000000    0.00000000    0.00000000
     atom   23 type  3   force =     0.00000000    0.00000000    0.00000000
     The Hubbard contrib.    to forces
     atom    1 type  1   force =     0.00000000   -0.00000000   -0.00000000
     atom    2 type  1   force =    -0.00000000   -0.00000000   -0.00000000
     atom    3 type  1   force =     0.00000000    0.00000000   -0.00000000
     atom    4 type  1   force =    -0.00000000    0.00000000   -0.00000000
     atom    5 type  1   force =    -0.00000000   -0.00000000    0.00000000
     atom    6 type  1   force =     0.00000000    0.00000000    0.00000000
     atom    7 type  1   force =    -0.00000000    0.00000000    0.00000000
     atom    8 type  1   force =     0.00000000   -0.00000000   -0.00000000
     atom    9 type  1   force =     0.00000000   -0.00000000    0.00000000
     atom   10 type  1   force =     0.00000000    0.00000000    0.00000000
     atom   11 type  1   force =    -0.00000000   -0.00000000    0.00000000
     atom   12 type  1   force =    -0.00000000    0.00000000   -0.00000000
     atom   13 type  1   force =     0.00000000    0.00000000   -0.00000000
     atom   14 type  1   force =    -0.00000000   -0.00000000   -0.00000000
     atom   15 type  1   force =    -0.00000000    0.00000000    0.00000000
     atom   16 type  1   force =     0.00000000   -0.00000000    0.00000000
     atom   17 type  1   force =     0.00000000   -0.00000000    0.00000000
     atom   18 type  1   force =    -0.00000000    0.00000000    0.00000000
     atom   19 type  1   force =    -0.00000000    0.00000000    0.00000000
     atom   20 type  1   force =     0.00000000   -0.00000000    0.00000000
     atom   21 type  2   force =    -0.00000000    0.00000000    0.00000000
     atom   22 type  3   force =     0.00000000   -0.00000000   -0.00000000
     atom   23 type  3   force =    -0.00000000    0.00000000   -0.00000000
     The SCF correction term to forces
     atom    1 type  1   force =     0.00000000    0.00000000    0.00000000
     atom    2 type  1   force =     0.00000000    0.00000000    0.00000000
     atom    3 type  1   force =     0.00000000    0.00000000    0.00000000
     atom    4 type  1   force =     0.00000000    0.00000000    0.00000000
     atom    5 type  1   force =     0.00000000    0.00000000    0.00000000
     atom    6 type  1   force =     0.00000000    0.00000000    0.00000000
     atom    7 type  1   force =     0.00000000    0.00000000    0.00000000
     atom    8 type  1   force =     0.00000000    0.00000000    0.00000000
     atom    9 type  1   force =     0.00000000    0.00000000    0.00000000
     atom   10 type  1   force =     0.00000000    0.00000000    0.00000000
     atom   11 type  1   force =     0.00000000    0.00000000    0.00000000
     atom   12 type  1   force =     0.00000000    0.00000000    0.00000000
     atom   13 type  1   force =    -0.00001013   -0.00001632   -0.00007060
     atom   14 type  1   force =     0.00001154    0.00001569   -0.00007051
     atom   15 type  1   force =    -0.00000523    0.00000470   -0.00002966
     atom   16 type  1   force =     0.00000637   -0.00000552   -0.00002038
     atom   17 type  1   force =    -0.00000752    0.00000564    0.00009934
     atom   18 type  1   force =    -0.00000203    0.00000131    0.00006726
     atom   19 type  1   force =    -0.00000231    0.00000131    0.00006662
     atom   20 type  1   force =     0.00000532   -0.00000417    0.00011307
     atom   21 type  2   force =     0.00000483   -0.00000349    0.00002448
     atom   22 type  3   force =    -0.00000075    0.00000055    0.00000287
     atom   23 type  3   force =    -0.00000126    0.00000096    0.00000475

     Total force =     0.000230     Total SCF correction =     0.000211
     SCF correction compared to forces is large: reduce conv_thr to get better values


     entering subroutine stress ...


     negative rho (up, down):  0.419E-04 0.403E-03
          total   stress  (Ry/bohr**3)                   (kbar)     P=   -6.92
  -0.00004365  -0.00003631   0.00000044         -6.42     -5.34      0.06
  -0.00003631  -0.00006933  -0.00000052         -5.34    -10.20     -0.08
   0.00000044  -0.00000052  -0.00002818          0.06     -0.08     -4.14

     kinetic stress (kbar)  40232.74      4.26      4.62
                                4.26  40235.68     -3.35
                                4.62     -3.35  40098.03

     local   stress (kbar)**********    859.42    116.07
                              859.42**********    -78.44
                              116.07    -78.441312292.78

     nonloc. stress (kbar) -30939.26     15.87     -1.95
                               15.87 -30928.06      1.49
                               -1.95      1.49 -30810.86

     hartree stress (kbar) 654230.71   -328.95    -42.08
                             -328.95 653998.19     28.43
                              -42.08     28.43-612604.23

     exc-cor stress (kbar)  -1247.16     -0.97     -0.14
                               -0.97  -1247.84      0.09
                               -0.14      0.09  -1255.24

     corecor stress (kbar)  -8297.30     -0.22     -0.05
                               -0.22  -8297.45      0.04
                               -0.05      0.04  -8296.47

     ewald   stress (kbar) 591039.58   -554.76    -76.40
                             -554.76 590647.69     51.66
                              -76.40     51.66-699428.15

     hubbard stress (kbar)     -0.00      0.00     -0.00
                                0.00     -0.00      0.00
                               -0.00      0.00     -0.00

     london  stress (kbar)      0.00      0.00      0.00
                                0.00      0.00      0.00
                                0.00      0.00      0.00

     dft-nl  stress (kbar)      0.00      0.00      0.00
                                0.00      0.00      0.00
                                0.00      0.00      0.00



     Writing output data file Fe_110_2x2_SB_HS_LB_H.save
 
     init_run     :     42.40s CPU     45.46s WALL (       1 calls)
     electrons    :   1693.51s CPU   1793.39s WALL (       1 calls)
     forces       :     62.76s CPU     63.73s WALL (       1 calls)
     stress       :    306.21s CPU    314.39s WALL (       1 calls)

     Called by init_run:
     wfcinit      :     24.89s CPU     27.61s WALL (       1 calls)
     potinit      :      2.91s CPU      2.98s WALL (       1 calls)

     Called by electrons:
     c_bands      :    866.87s CPU    911.47s WALL (      28 calls)
     sum_band     :    444.98s CPU    463.73s WALL (      28 calls)
     v_of_rho     :     17.96s CPU     18.40s WALL (      29 calls)
     v_h          :      0.86s CPU      0.88s WALL (      29 calls)
     v_xc         :     18.29s CPU     18.72s WALL (      31 calls)
     newd         :    257.60s CPU    258.47s WALL (      29 calls)
     mix_rho      :     97.05s CPU     97.44s WALL (      28 calls)

     Called by c_bands:
     init_us_2    :      5.51s CPU      5.54s WALL (     350 calls)
     cegterg      :    809.81s CPU    828.14s WALL (     140 calls)

     Called by sum_band:
     sum_band:bec :      0.29s CPU      0.30s WALL (     140 calls)
     addusdens    :    294.57s CPU    295.18s WALL (      28 calls)

     Called by *egterg:
     h_psi        :    593.71s CPU    595.13s WALL (     552 calls)
     s_psi        :     46.10s CPU     46.23s WALL (     607 calls)
     g_psi        :      1.10s CPU      1.14s WALL (     407 calls)
     cdiaghg      :     63.04s CPU     63.33s WALL (     547 calls)
     cegterg:over :     46.89s CPU     47.00s WALL (     407 calls)
     cegterg:upda :     35.08s CPU     35.24s WALL (     407 calls)
     cegterg:last :     21.86s CPU     21.85s WALL (     140 calls)
     cdiaghg:chol :      3.06s CPU      3.05s WALL (     547 calls)
     cdiaghg:inve :      1.06s CPU      1.06s WALL (     547 calls)
     cdiaghg:para :     12.41s CPU     12.48s WALL (    1094 calls)

     Called by h_psi:
     h_psi:vloc   :    389.64s CPU    390.90s WALL (     552 calls)
     h_psi:vnl    :     82.99s CPU     83.05s WALL (     552 calls)
     add_vuspsi   :     39.83s CPU     39.82s WALL (     552 calls)
     vhpsi        :    119.01s CPU    119.11s WALL (     552 calls)

     General routines
     calbec       :    141.18s CPU    141.46s WALL (    2579 calls)
     fft          :     19.45s CPU     19.80s WALL (     933 calls)
     ffts         :     46.02s CPU     46.02s WALL (   11083 calls)
     fftw         :    400.39s CPU    401.69s WALL (   75122 calls)
     interpolate  :      3.14s CPU      3.18s WALL (     114 calls)
     davcio       :     10.32s CPU     63.68s WALL (    1025 calls)
 
     Parallel routines
     fft_scatter  :    200.01s CPU    200.86s WALL (   87138 calls)
     ALLTOALL     :      9.83s CPU      9.92s WALL (   74926 calls)
     Hubbard U routines
     new_ns       :     15.93s CPU     28.46s WALL (      28 calls)
     vhpsi        :    119.01s CPU    119.11s WALL (     552 calls)
     force_hub    :     17.18s CPU     17.88s WALL (       1 calls)
     stres_hub    :    166.66s CPU    174.58s WALL (       1 calls)
 
     PAW routines
     PAW_pot      :      7.20s CPU      7.23s WALL (      29 calls)
     PAW_ddot     :      6.16s CPU      6.10s WALL (     976 calls)
 
     PWSCF        : 35m17.88s CPU    37m23.52s WALL

 
   This run was terminated on:  10:51:14   4Aug2015            

=------------------------------------------------------------------------------=
   JOB DONE.
=------------------------------------------------------------------------------=
Application 16678723 resources: utime ~103843s, stime ~3519s, Rss ~526240, inblocks ~4990717228, outblocks ~804563759
