
     Program PWSCF v.5.0.2 (svn rev. 9656) starts on 14Dec2015 at 10:56: 9 

     This program is part of the open-source Quantum ESPRESSO suite
     for quantum simulation of materials; please cite
         "P. Giannozzi et al., J. Phys.:Condens. Matter 21 395502 (2009);
          URL http://www.quantum-espresso.org", 
     in publications or presentations arising from this work. More details at
     http://www.quantum-espresso.org/quote.php

     Parallel version (MPI & OpenMP), running on      48 processor cores
     Number of MPI processes:                48
     Threads/MPI process:                     1
     K-points division:     npool     =       4
     R & G space division:  proc/nbgrp/npool/nimage =      12
     wavefunctions fft division:  fft/group =       2

     Current dimensions of program PWSCF are:
     Max number of different atomic species (ntypx) = 10
     Max number of k-points (npk) =  40000
     Max angular momentum in pseudopotentials (lmaxx) =  3
     Reading input from Fe_110_2x2_H2O_top_5ML_scf.in
Warning: card  &IONS ignored
Warning: card  / ignored
Warning: card  &CELL ignored
Warning: card    PRESS=0.0 ignored
Warning: card    PRESS_CONV_THR=0.1 ignored
Warning: card  / ignored

     IMPORTANT: XC functional enforced from input :
     Exchange-correlation      = PBE ( 1 4 3 4 0)
     EXX-fraction              =        0.00
     Any further DFT definition will be discarded
     Please, verify this is what you really want

               file Fe.pbe-spn-kjpaw_psl.0.2.1.UPF: wavefunction(s)  3D renormalized
               file O.pbe-n-kjpaw_psl.0.1.UPF: wavefunction(s)  2P renormalized
               file H.pbe-kjpaw_psl.0.1.upf: wavefunction(s)  1S renormalized

     Subspace diagonalization in iterative solution of the eigenvalue problem:
     scalapack distributed-memory algorithm (size of sub-group:  2*  2 procs)


   Task Groups are in USE
   groups and procs/group :     2    6
 
     Parallelization info
     --------------------
     sticks:   dense  smooth     PW     G-vecs:    dense   smooth      PW
     Min         429     203     57                99954    32713    4877
     Max         431     204     58                99959    32748    4892
     Sum        5161    2447    693              1199489   392779   58615
 


     bravais-lattice index     =            0
     lattice parameter (alat)  =       1.8897  a.u.
     unit-cell volume          =    3139.3349 (a.u.)^3
     number of atoms/cell      =           26
     number of atomic types    =            3
     number of electrons       =       336.00
     number of Kohn-Sham states=          202
     kinetic-energy cutoff     =      95.0000  Ry
     charge density cutoff     =     800.0000  Ry
     convergence threshold     =      1.0E-08
     mixing beta               =       0.5000
     number of iterations used =            8  local-TF  mixing
     Exchange-correlation      = PBE ( 1 4 3 4 0)
     EXX-fraction              =        0.00

     celldm(1)=   1.889727  celldm(2)=   0.000000  celldm(3)=   0.000000
     celldm(4)=   0.000000  celldm(5)=   0.000000  celldm(6)=   0.000000

     crystal axes: (cart. coord. in units of alat)
               a(1) = (   4.906044   0.000000   0.000000 )  
               a(2) = (  -1.635348   4.625463   0.000000 )  
               a(3) = (   0.000000   0.000000  20.500000 )  

     reciprocal axes: (cart. coord. in units 2 pi/alat)
               b(1) = (  0.203830  0.072065  0.000000 )  
               b(2) = (  0.000000  0.216195  0.000000 )  
               b(3) = (  0.000000  0.000000  0.048780 )  


     PseudoPot. # 1 for Fe read from file:
     /work/e05/e05/ablar/QE_PSEUDO/Fe.pbe-spn-kjpaw_psl.0.2.1.UPF
     MD5 check sum: a0a08122d52b112de96d1da1d7dd020f
     Pseudo is Projector augmented-wave + core cor, Zval = 16.0
     Generated using "atomic" code by A. Dal Corso  v.5.0.2 svn rev. 9415
     Shape of augmentation charge: PSQ
     Using radial grid of 1191 points,  6 beta functions with: 
                l(1) =   0
                l(2) =   0
                l(3) =   1
                l(4) =   1
                l(5) =   2
                l(6) =   2
     Q(r) pseudized with 0 coefficients 


     PseudoPot. # 2 for  O read from file:
     /work/e05/e05/ablar/QE_PSEUDO/O.pbe-n-kjpaw_psl.0.1.UPF
     MD5 check sum: 1d826bf4880e2aee2c3af49d0719521d
     Pseudo is Projector augmented-wave + core cor, Zval =  6.0
     Generated using "atomic" code by A. Dal Corso  v.5.0.2 svn rev. 9415
     Shape of augmentation charge: BESSEL
     Using radial grid of 1095 points,  4 beta functions with: 
                l(1) =   0
                l(2) =   0
                l(3) =   1
                l(4) =   1
     Q(r) pseudized with 0 coefficients 


     PseudoPot. # 3 for  H read from file:
     /work/e05/e05/ablar/QE_PSEUDO/H.pbe-kjpaw_psl.0.1.upf
     MD5 check sum: 94e484f906d9e9773b2f6e52662335b2
     Pseudo is Projector augmented-wave, Zval =  1.0
     Generated using "atomic" code by A. Dal Corso  v.5.0.99 svn rev. 10869
     Shape of augmentation charge: PSQ
     Using radial grid of  929 points,  2 beta functions with: 
                l(1) =   0
                l(2) =   0
     Q(r) pseudized with 0 coefficients 


     atomic species   valence    mass     pseudopotential
        Fe            16.00    55.85000     Fe( 1.00)
        O              6.00    16.00000      O( 1.00)
        H              1.00     1.00000      H( 1.00)

     Starting magnetic structure 
     atomic species   magnetization
        Fe           0.600
        O            0.000
        H            0.000


     Simplified LDA+U calculation (l_max = 2) with parameters (eV):
     atomic species    L          U    alpha       J0     beta
        Fe             2     0.0000   0.0000   0.0000   0.0000



     No symmetry found


                                    s                        frac. trans.

      isym =  1     identity                                     

 cryst.   s( 1) = (     1          0          0      )
                  (     0          1          0      )
                  (     0          0          1      )

 cart.    s( 1) = (  1.0000000  0.0000000  0.0000000 )
                  (  0.0000000  1.0000000  0.0000000 )
                  (  0.0000000  0.0000000  1.0000000 )


     point group C_1 (1)    
     there are  1 classes
     the character table:

       E    
A      1.00

     the symmetry operations in each class:
     E        1

   Cartesian axes

     site n.     atom                  positions (alat units)
         1           Fe  tau(   1) = (   0.0000000   0.0000000  -4.0057668  )
         2           Fe  tau(   2) = (  -0.8176737   2.3127306  -4.0057668  )
         3           Fe  tau(   3) = (   2.4530212   0.0000000  -4.0057668  )
         4           Fe  tau(   4) = (  -3.2706949   2.3127306  -4.0057668  )
         5           Fe  tau(   5) = (   0.8176737   1.1563653  -2.0028834  )
         6           Fe  tau(   6) = (  -0.8176737  -1.1563653  -2.0028834  )
         7           Fe  tau(   7) = (   1.6353475  -1.1563653  -2.0028834  )
         8           Fe  tau(   8) = (  -1.6353475   1.1563653  -2.0028834  )
         9           Fe  tau(   9) = (   0.0000000   0.0000000   0.0000000  )
        10           Fe  tau(  10) = (  -0.8176737   2.3127306   0.0000000  )
        11           Fe  tau(  11) = (   2.4530212   0.0000000   0.0000000  )
        12           Fe  tau(  12) = (  -3.2706949   2.3127306   0.0000000  )
        13           Fe  tau(  13) = (   0.8290182   1.1727948   1.9892700  )
        14           Fe  tau(  14) = (  -0.8295198  -1.1723899   1.9904963  )
        15           Fe  tau(  15) = (   1.6376340  -1.1583327   1.9671085  )
        16           Fe  tau(  16) = (  -1.6381645   1.1581194   1.9702719  )
        17           Fe  tau(  17) = (  -0.0021232   0.0049094   3.8933608  )
        18           Fe  tau(  18) = (  -0.8127781   2.3206087   3.9261779  )
        19           Fe  tau(  19) = (   2.4468891  -0.0092178   3.9264460  )
        20           Fe  tau(  20) = (  -3.2607205   2.3019458   4.1985364  )
        21           O   tau(  21) = (   0.8390042  -1.0085349   7.0166994  )
        22           H   tau(  22) = (   0.8821352  -0.7963642   6.0403843  )
        23           H   tau(  23) = (   1.6647606  -1.5310947   7.1304612  )
        24           O   tau(  24) = (  -3.1544205   2.2449688   6.4686572  )
        25           H   tau(  25) = (  -2.2909260   2.6452356   6.7843506  )
        26           H   tau(  26) = (  -3.1732849   1.3133711   6.7681664  )

   Crystallographic axes

     site n.     atom                  positions (cryst. coord.)
         1           Fe  tau(   1) = (  0.0000000  0.0000000 -0.1954033  )
         2           Fe  tau(   2) = ( -0.0000000  0.4999998 -0.1954033  )
         3           Fe  tau(   3) = (  0.4999998  0.0000000 -0.1954033  )
         4           Fe  tau(   4) = ( -0.4999998  0.4999998 -0.1954033  )
         5           Fe  tau(   5) = (  0.2499999  0.2499999 -0.0977016  )
         6           Fe  tau(   6) = ( -0.2499999 -0.2499999 -0.0977016  )
         7           Fe  tau(   7) = (  0.2499999 -0.2499999 -0.0977016  )
         8           Fe  tau(   8) = ( -0.2499999  0.2499999 -0.0977016  )
         9           Fe  tau(   9) = (  0.0000000  0.0000000  0.0000000  )
        10           Fe  tau(  10) = ( -0.0000000  0.4999998  0.0000000  )
        11           Fe  tau(  11) = (  0.4999998  0.0000000  0.0000000  )
        12           Fe  tau(  12) = ( -0.4999998  0.4999998  0.0000000  )
        13           Fe  tau(  13) = (  0.2534962  0.2535519  0.0970376  )
        14           Fe  tau(  14) = ( -0.2535693 -0.2534643  0.0970974  )
        15           Fe  tau(  15) = (  0.2503242 -0.2504253  0.0959565  )
        16           Fe  tau(  16) = ( -0.2504477  0.2503791  0.0961108  )
        17           Fe  tau(  17) = ( -0.0000790  0.0010614  0.1899200  )
        18           Fe  tau(  18) = (  0.0015656  0.5017030  0.1915209  )
        19           Fe  tau(  19) = (  0.4980856 -0.0019928  0.1915339  )
        20           Fe  tau(  20) = ( -0.4987439  0.4976682  0.2048067  )
        21           O   tau(  21) = (  0.0983345 -0.2180398  0.3422780  )
        22           H   tau(  22) = (  0.1224159 -0.1721696  0.2946529  )
        23           H   tau(  23) = (  0.2289904 -0.3310144  0.3478274  )
        24           O   tau(  24) = ( -0.4811828  0.4853501  0.3155443  )
        25           H   tau(  25) = ( -0.2763314  0.5718856  0.3309439  )
        26           H   tau(  26) = ( -0.5521634  0.2839437  0.3301545  )

     number of k points=    20  Marzari-Vanderbilt smearing, width (Ry)=  0.0400
                       cart. coord. in units 2pi/alat
        k(    1) = (   0.0000000   0.0000000   0.0000000), wk =   0.0625000
        k(    2) = (   0.0000000   0.0540486   0.0000000), wk =   0.1250000
        k(    3) = (   0.0000000  -0.1080973   0.0000000), wk =   0.0625000
        k(    4) = (   0.0509576   0.0180162   0.0000000), wk =   0.1250000
        k(    5) = (   0.0509576   0.0720649   0.0000000), wk =   0.1250000
        k(    6) = (   0.0509576  -0.0900811   0.0000000), wk =   0.1250000
        k(    7) = (   0.0509576  -0.0360324   0.0000000), wk =   0.1250000
        k(    8) = (  -0.1019151  -0.0360324   0.0000000), wk =   0.0625000
        k(    9) = (  -0.1019151   0.0180162   0.0000000), wk =   0.1250000
        k(   10) = (  -0.1019151  -0.1441297   0.0000000), wk =   0.0625000
        k(   11) = (   0.0000000   0.0000000   0.0000000), wk =   0.0625000
        k(   12) = (   0.0000000   0.0540486   0.0000000), wk =   0.1250000
        k(   13) = (   0.0000000  -0.1080973   0.0000000), wk =   0.0625000
        k(   14) = (   0.0509576   0.0180162   0.0000000), wk =   0.1250000
        k(   15) = (   0.0509576   0.0720649   0.0000000), wk =   0.1250000
        k(   16) = (   0.0509576  -0.0900811   0.0000000), wk =   0.1250000
        k(   17) = (   0.0509576  -0.0360324   0.0000000), wk =   0.1250000
        k(   18) = (  -0.1019151  -0.0360324   0.0000000), wk =   0.0625000
        k(   19) = (  -0.1019151   0.0180162   0.0000000), wk =   0.1250000
        k(   20) = (  -0.1019151  -0.1441297   0.0000000), wk =   0.0625000

                       cryst. coord.
        k(    1) = (   0.0000000   0.0000000   0.0000000), wk =   0.0625000
        k(    2) = (   0.0000000   0.2500000   0.0000000), wk =   0.1250000
        k(    3) = (   0.0000000  -0.5000000   0.0000000), wk =   0.0625000
        k(    4) = (   0.2500000   0.0000000   0.0000000), wk =   0.1250000
        k(    5) = (   0.2500000   0.2500000   0.0000000), wk =   0.1250000
        k(    6) = (   0.2500000  -0.5000000   0.0000000), wk =   0.1250000
        k(    7) = (   0.2500000  -0.2500000   0.0000000), wk =   0.1250000
        k(    8) = (  -0.5000000  -0.0000000   0.0000000), wk =   0.0625000
        k(    9) = (  -0.5000000   0.2500000   0.0000000), wk =   0.1250000
        k(   10) = (  -0.5000000  -0.5000000   0.0000000), wk =   0.0625000
        k(   11) = (   0.0000000   0.0000000   0.0000000), wk =   0.0625000
        k(   12) = (   0.0000000   0.2500000   0.0000000), wk =   0.1250000
        k(   13) = (   0.0000000  -0.5000000   0.0000000), wk =   0.0625000
        k(   14) = (   0.2500000   0.0000000   0.0000000), wk =   0.1250000
        k(   15) = (   0.2500000   0.2500000   0.0000000), wk =   0.1250000
        k(   16) = (   0.2500000  -0.5000000   0.0000000), wk =   0.1250000
        k(   17) = (   0.2500000  -0.2500000   0.0000000), wk =   0.1250000
        k(   18) = (  -0.5000000  -0.0000000   0.0000000), wk =   0.0625000
        k(   19) = (  -0.5000000   0.2500000   0.0000000), wk =   0.1250000
        k(   20) = (  -0.5000000  -0.5000000   0.0000000), wk =   0.0625000

     Dense  grid:  1199489 G-vectors     FFT dimensions: (  90,  90, 360)

     Smooth grid:   392779 G-vectors     FFT dimensions: (  60,  60, 243)

     Largest allocated arrays     est. size (Mb)     dimensions
        Kohn-Sham Wavefunctions        13.04 Mb     (   4230,  202)
        Atomic wavefunctions           17.56 Mb     (   4230,  272)
        NL pseudopotentials            24.79 Mb     (   4230,  384)
        Each V/rho on FFT grid          7.42 Mb     ( 243000,   2)
        Each G-vector array             0.76 Mb     (  99959)
        G-vector shells                 0.31 Mb     (  40422)
     Largest temporary arrays     est. size (Mb)     dimensions
        Auxiliary wavefunctions        52.15 Mb     (   4230,  808)
        Each subspace H/S matrix        2.49 Mb     ( 404, 404)
        Each <psi_i|beta_j> matrix      1.18 Mb     (    384,  202)
        Arrays for rho mixing          29.66 Mb     ( 243000,   8)

     Check: negative/imaginary core charge=   -0.000012    0.000000

     Initial potential from superposition of free atoms

     starting charge  335.99119, renormalised to  336.00000

     negative rho (up, down):  0.542E-05 0.938E-06
 --- in v_hubbard ---
Hubbard energy    0.0000
 -------
     Number of +U iterations with fixed ns =  0
     Starting occupations:
 --- enter write_ns ---
 LDA+U parameters:
U( 1)     =  0.00000000
alpha( 1) =  0.00000000
atom    1   Tr[ns(na)] (up, down, total) =   5.00000  1.00000  6.00000
   spin  1
    eigenvalues: 
  1.000  1.000  1.000  1.000  1.000
    eigenvectors:
  1.000  0.000  0.000  0.000  0.000
  0.000  1.000  0.000  0.000  0.000
  0.000  0.000  1.000  0.000  0.000
  0.000  0.000  0.000  1.000  0.000
  0.000  0.000  0.000  0.000  1.000
    occupations:
  1.000  0.000  0.000  0.000  0.000
  0.000  1.000  0.000  0.000  0.000
  0.000  0.000  1.000  0.000  0.000
  0.000  0.000  0.000  1.000  0.000
  0.000  0.000  0.000  0.000  1.000
   spin  2
    eigenvalues: 
  0.200  0.200  0.200  0.200  0.200
    eigenvectors:
  1.000  0.000  0.000  0.000  0.000
  0.000  1.000  0.000  0.000  0.000
  0.000  0.000  1.000  0.000  0.000
  0.000  0.000  0.000  1.000  0.000
  0.000  0.000  0.000  0.000  1.000
    occupations:
  0.200  0.000  0.000  0.000  0.000
  0.000  0.200  0.000  0.000  0.000
  0.000  0.000  0.200  0.000  0.000
  0.000  0.000  0.000  0.200  0.000
  0.000  0.000  0.000  0.000  0.200
atomic mag. moment =     4.000000
atom    2   Tr[ns(na)] (up, down, total) =   5.00000  1.00000  6.00000
   spin  1
    eigenvalues: 
  1.000  1.000  1.000  1.000  1.000
    eigenvectors:
  1.000  0.000  0.000  0.000  0.000
  0.000  1.000  0.000  0.000  0.000
  0.000  0.000  1.000  0.000  0.000
  0.000  0.000  0.000  1.000  0.000
  0.000  0.000  0.000  0.000  1.000
    occupations:
  1.000  0.000  0.000  0.000  0.000
  0.000  1.000  0.000  0.000  0.000
  0.000  0.000  1.000  0.000  0.000
  0.000  0.000  0.000  1.000  0.000
  0.000  0.000  0.000  0.000  1.000
   spin  2
    eigenvalues: 
  0.200  0.200  0.200  0.200  0.200
    eigenvectors:
  1.000  0.000  0.000  0.000  0.000
  0.000  1.000  0.000  0.000  0.000
  0.000  0.000  1.000  0.000  0.000
  0.000  0.000  0.000  1.000  0.000
  0.000  0.000  0.000  0.000  1.000
    occupations:
  0.200  0.000  0.000  0.000  0.000
  0.000  0.200  0.000  0.000  0.000
  0.000  0.000  0.200  0.000  0.000
  0.000  0.000  0.000  0.200  0.000
  0.000  0.000  0.000  0.000  0.200
atomic mag. moment =     4.000000
atom    3   Tr[ns(na)] (up, down, total) =   5.00000  1.00000  6.00000
   spin  1
    eigenvalues: 
  1.000  1.000  1.000  1.000  1.000
    eigenvectors:
  1.000  0.000  0.000  0.000  0.000
  0.000  1.000  0.000  0.000  0.000
  0.000  0.000  1.000  0.000  0.000
  0.000  0.000  0.000  1.000  0.000
  0.000  0.000  0.000  0.000  1.000
    occupations:
  1.000  0.000  0.000  0.000  0.000
  0.000  1.000  0.000  0.000  0.000
  0.000  0.000  1.000  0.000  0.000
  0.000  0.000  0.000  1.000  0.000
  0.000  0.000  0.000  0.000  1.000
   spin  2
    eigenvalues: 
  0.200  0.200  0.200  0.200  0.200
    eigenvectors:
  1.000  0.000  0.000  0.000  0.000
  0.000  1.000  0.000  0.000  0.000
  0.000  0.000  1.000  0.000  0.000
  0.000  0.000  0.000  1.000  0.000
  0.000  0.000  0.000  0.000  1.000
    occupations:
  0.200  0.000  0.000  0.000  0.000
  0.000  0.200  0.000  0.000  0.000
  0.000  0.000  0.200  0.000  0.000
  0.000  0.000  0.000  0.200  0.000
  0.000  0.000  0.000  0.000  0.200
atomic mag. moment =     4.000000
atom    4   Tr[ns(na)] (up, down, total) =   5.00000  1.00000  6.00000
   spin  1
    eigenvalues: 
  1.000  1.000  1.000  1.000  1.000
    eigenvectors:
  1.000  0.000  0.000  0.000  0.000
  0.000  1.000  0.000  0.000  0.000
  0.000  0.000  1.000  0.000  0.000
  0.000  0.000  0.000  1.000  0.000
  0.000  0.000  0.000  0.000  1.000
    occupations:
  1.000  0.000  0.000  0.000  0.000
  0.000  1.000  0.000  0.000  0.000
  0.000  0.000  1.000  0.000  0.000
  0.000  0.000  0.000  1.000  0.000
  0.000  0.000  0.000  0.000  1.000
   spin  2
    eigenvalues: 
  0.200  0.200  0.200  0.200  0.200
    eigenvectors:
  1.000  0.000  0.000  0.000  0.000
  0.000  1.000  0.000  0.000  0.000
  0.000  0.000  1.000  0.000  0.000
  0.000  0.000  0.000  1.000  0.000
  0.000  0.000  0.000  0.000  1.000
    occupations:
  0.200  0.000  0.000  0.000  0.000
  0.000  0.200  0.000  0.000  0.000
  0.000  0.000  0.200  0.000  0.000
  0.000  0.000  0.000  0.200  0.000
  0.000  0.000  0.000  0.000  0.200
atomic mag. moment =     4.000000
atom    5   Tr[ns(na)] (up, down, total) =   5.00000  1.00000  6.00000
   spin  1
    eigenvalues: 
  1.000  1.000  1.000  1.000  1.000
    eigenvectors:
  1.000  0.000  0.000  0.000  0.000
  0.000  1.000  0.000  0.000  0.000
  0.000  0.000  1.000  0.000  0.000
  0.000  0.000  0.000  1.000  0.000
  0.000  0.000  0.000  0.000  1.000
    occupations:
  1.000  0.000  0.000  0.000  0.000
  0.000  1.000  0.000  0.000  0.000
  0.000  0.000  1.000  0.000  0.000
  0.000  0.000  0.000  1.000  0.000
  0.000  0.000  0.000  0.000  1.000
   spin  2
    eigenvalues: 
  0.200  0.200  0.200  0.200  0.200
    eigenvectors:
  1.000  0.000  0.000  0.000  0.000
  0.000  1.000  0.000  0.000  0.000
  0.000  0.000  1.000  0.000  0.000
  0.000  0.000  0.000  1.000  0.000
  0.000  0.000  0.000  0.000  1.000
    occupations:
  0.200  0.000  0.000  0.000  0.000
  0.000  0.200  0.000  0.000  0.000
  0.000  0.000  0.200  0.000  0.000
  0.000  0.000  0.000  0.200  0.000
  0.000  0.000  0.000  0.000  0.200
atomic mag. moment =     4.000000
atom    6   Tr[ns(na)] (up, down, total) =   5.00000  1.00000  6.00000
   spin  1
    eigenvalues: 
  1.000  1.000  1.000  1.000  1.000
    eigenvectors:
  1.000  0.000  0.000  0.000  0.000
  0.000  1.000  0.000  0.000  0.000
  0.000  0.000  1.000  0.000  0.000
  0.000  0.000  0.000  1.000  0.000
  0.000  0.000  0.000  0.000  1.000
    occupations:
  1.000  0.000  0.000  0.000  0.000
  0.000  1.000  0.000  0.000  0.000
  0.000  0.000  1.000  0.000  0.000
  0.000  0.000  0.000  1.000  0.000
  0.000  0.000  0.000  0.000  1.000
   spin  2
    eigenvalues: 
  0.200  0.200  0.200  0.200  0.200
    eigenvectors:
  1.000  0.000  0.000  0.000  0.000
  0.000  1.000  0.000  0.000  0.000
  0.000  0.000  1.000  0.000  0.000
  0.000  0.000  0.000  1.000  0.000
  0.000  0.000  0.000  0.000  1.000
    occupations:
  0.200  0.000  0.000  0.000  0.000
  0.000  0.200  0.000  0.000  0.000
  0.000  0.000  0.200  0.000  0.000
  0.000  0.000  0.000  0.200  0.000
  0.000  0.000  0.000  0.000  0.200
atomic mag. moment =     4.000000
atom    7   Tr[ns(na)] (up, down, total) =   5.00000  1.00000  6.00000
   spin  1
    eigenvalues: 
  1.000  1.000  1.000  1.000  1.000
    eigenvectors:
  1.000  0.000  0.000  0.000  0.000
  0.000  1.000  0.000  0.000  0.000
  0.000  0.000  1.000  0.000  0.000
  0.000  0.000  0.000  1.000  0.000
  0.000  0.000  0.000  0.000  1.000
    occupations:
  1.000  0.000  0.000  0.000  0.000
  0.000  1.000  0.000  0.000  0.000
  0.000  0.000  1.000  0.000  0.000
  0.000  0.000  0.000  1.000  0.000
  0.000  0.000  0.000  0.000  1.000
   spin  2
    eigenvalues: 
  0.200  0.200  0.200  0.200  0.200
    eigenvectors:
  1.000  0.000  0.000  0.000  0.000
  0.000  1.000  0.000  0.000  0.000
  0.000  0.000  1.000  0.000  0.000
  0.000  0.000  0.000  1.000  0.000
  0.000  0.000  0.000  0.000  1.000
    occupations:
  0.200  0.000  0.000  0.000  0.000
  0.000  0.200  0.000  0.000  0.000
  0.000  0.000  0.200  0.000  0.000
  0.000  0.000  0.000  0.200  0.000
  0.000  0.000  0.000  0.000  0.200
atomic mag. moment =     4.000000
atom    8   Tr[ns(na)] (up, down, total) =   5.00000  1.00000  6.00000
   spin  1
    eigenvalues: 
  1.000  1.000  1.000  1.000  1.000
    eigenvectors:
  1.000  0.000  0.000  0.000  0.000
  0.000  1.000  0.000  0.000  0.000
  0.000  0.000  1.000  0.000  0.000
  0.000  0.000  0.000  1.000  0.000
  0.000  0.000  0.000  0.000  1.000
    occupations:
  1.000  0.000  0.000  0.000  0.000
  0.000  1.000  0.000  0.000  0.000
  0.000  0.000  1.000  0.000  0.000
  0.000  0.000  0.000  1.000  0.000
  0.000  0.000  0.000  0.000  1.000
   spin  2
    eigenvalues: 
  0.200  0.200  0.200  0.200  0.200
    eigenvectors:
  1.000  0.000  0.000  0.000  0.000
  0.000  1.000  0.000  0.000  0.000
  0.000  0.000  1.000  0.000  0.000
  0.000  0.000  0.000  1.000  0.000
  0.000  0.000  0.000  0.000  1.000
    occupations:
  0.200  0.000  0.000  0.000  0.000
  0.000  0.200  0.000  0.000  0.000
  0.000  0.000  0.200  0.000  0.000
  0.000  0.000  0.000  0.200  0.000
  0.000  0.000  0.000  0.000  0.200
atomic mag. moment =     4.000000
atom    9   Tr[ns(na)] (up, down, total) =   5.00000  1.00000  6.00000
   spin  1
    eigenvalues: 
  1.000  1.000  1.000  1.000  1.000
    eigenvectors:
  1.000  0.000  0.000  0.000  0.000
  0.000  1.000  0.000  0.000  0.000
  0.000  0.000  1.000  0.000  0.000
  0.000  0.000  0.000  1.000  0.000
  0.000  0.000  0.000  0.000  1.000
    occupations:
  1.000  0.000  0.000  0.000  0.000
  0.000  1.000  0.000  0.000  0.000
  0.000  0.000  1.000  0.000  0.000
  0.000  0.000  0.000  1.000  0.000
  0.000  0.000  0.000  0.000  1.000
   spin  2
    eigenvalues: 
  0.200  0.200  0.200  0.200  0.200
    eigenvectors:
  1.000  0.000  0.000  0.000  0.000
  0.000  1.000  0.000  0.000  0.000
  0.000  0.000  1.000  0.000  0.000
  0.000  0.000  0.000  1.000  0.000
  0.000  0.000  0.000  0.000  1.000
    occupations:
  0.200  0.000  0.000  0.000  0.000
  0.000  0.200  0.000  0.000  0.000
  0.000  0.000  0.200  0.000  0.000
  0.000  0.000  0.000  0.200  0.000
  0.000  0.000  0.000  0.000  0.200
atomic mag. moment =     4.000000
atom   10   Tr[ns(na)] (up, down, total) =   5.00000  1.00000  6.00000
   spin  1
    eigenvalues: 
  1.000  1.000  1.000  1.000  1.000
    eigenvectors:
  1.000  0.000  0.000  0.000  0.000
  0.000  1.000  0.000  0.000  0.000
  0.000  0.000  1.000  0.000  0.000
  0.000  0.000  0.000  1.000  0.000
  0.000  0.000  0.000  0.000  1.000
    occupations:
  1.000  0.000  0.000  0.000  0.000
  0.000  1.000  0.000  0.000  0.000
  0.000  0.000  1.000  0.000  0.000
  0.000  0.000  0.000  1.000  0.000
  0.000  0.000  0.000  0.000  1.000
   spin  2
    eigenvalues: 
  0.200  0.200  0.200  0.200  0.200
    eigenvectors:
  1.000  0.000  0.000  0.000  0.000
  0.000  1.000  0.000  0.000  0.000
  0.000  0.000  1.000  0.000  0.000
  0.000  0.000  0.000  1.000  0.000
  0.000  0.000  0.000  0.000  1.000
    occupations:
  0.200  0.000  0.000  0.000  0.000
  0.000  0.200  0.000  0.000  0.000
  0.000  0.000  0.200  0.000  0.000
  0.000  0.000  0.000  0.200  0.000
  0.000  0.000  0.000  0.000  0.200
atomic mag. moment =     4.000000
atom   11   Tr[ns(na)] (up, down, total) =   5.00000  1.00000  6.00000
   spin  1
    eigenvalues: 
  1.000  1.000  1.000  1.000  1.000
    eigenvectors:
  1.000  0.000  0.000  0.000  0.000
  0.000  1.000  0.000  0.000  0.000
  0.000  0.000  1.000  0.000  0.000
  0.000  0.000  0.000  1.000  0.000
  0.000  0.000  0.000  0.000  1.000
    occupations:
  1.000  0.000  0.000  0.000  0.000
  0.000  1.000  0.000  0.000  0.000
  0.000  0.000  1.000  0.000  0.000
  0.000  0.000  0.000  1.000  0.000
  0.000  0.000  0.000  0.000  1.000
   spin  2
    eigenvalues: 
  0.200  0.200  0.200  0.200  0.200
    eigenvectors:
  1.000  0.000  0.000  0.000  0.000
  0.000  1.000  0.000  0.000  0.000
  0.000  0.000  1.000  0.000  0.000
  0.000  0.000  0.000  1.000  0.000
  0.000  0.000  0.000  0.000  1.000
    occupations:
  0.200  0.000  0.000  0.000  0.000
  0.000  0.200  0.000  0.000  0.000
  0.000  0.000  0.200  0.000  0.000
  0.000  0.000  0.000  0.200  0.000
  0.000  0.000  0.000  0.000  0.200
atomic mag. moment =     4.000000
atom   12   Tr[ns(na)] (up, down, total) =   5.00000  1.00000  6.00000
   spin  1
    eigenvalues: 
  1.000  1.000  1.000  1.000  1.000
    eigenvectors:
  1.000  0.000  0.000  0.000  0.000
  0.000  1.000  0.000  0.000  0.000
  0.000  0.000  1.000  0.000  0.000
  0.000  0.000  0.000  1.000  0.000
  0.000  0.000  0.000  0.000  1.000
    occupations:
  1.000  0.000  0.000  0.000  0.000
  0.000  1.000  0.000  0.000  0.000
  0.000  0.000  1.000  0.000  0.000
  0.000  0.000  0.000  1.000  0.000
  0.000  0.000  0.000  0.000  1.000
   spin  2
    eigenvalues: 
  0.200  0.200  0.200  0.200  0.200
    eigenvectors:
  1.000  0.000  0.000  0.000  0.000
  0.000  1.000  0.000  0.000  0.000
  0.000  0.000  1.000  0.000  0.000
  0.000  0.000  0.000  1.000  0.000
  0.000  0.000  0.000  0.000  1.000
    occupations:
  0.200  0.000  0.000  0.000  0.000
  0.000  0.200  0.000  0.000  0.000
  0.000  0.000  0.200  0.000  0.000
  0.000  0.000  0.000  0.200  0.000
  0.000  0.000  0.000  0.000  0.200
atomic mag. moment =     4.000000
atom   13   Tr[ns(na)] (up, down, total) =   5.00000  1.00000  6.00000
   spin  1
    eigenvalues: 
  1.000  1.000  1.000  1.000  1.000
    eigenvectors:
  1.000  0.000  0.000  0.000  0.000
  0.000  1.000  0.000  0.000  0.000
  0.000  0.000  1.000  0.000  0.000
  0.000  0.000  0.000  1.000  0.000
  0.000  0.000  0.000  0.000  1.000
    occupations:
  1.000  0.000  0.000  0.000  0.000
  0.000  1.000  0.000  0.000  0.000
  0.000  0.000  1.000  0.000  0.000
  0.000  0.000  0.000  1.000  0.000
  0.000  0.000  0.000  0.000  1.000
   spin  2
    eigenvalues: 
  0.200  0.200  0.200  0.200  0.200
    eigenvectors:
  1.000  0.000  0.000  0.000  0.000
  0.000  1.000  0.000  0.000  0.000
  0.000  0.000  1.000  0.000  0.000
  0.000  0.000  0.000  1.000  0.000
  0.000  0.000  0.000  0.000  1.000
    occupations:
  0.200  0.000  0.000  0.000  0.000
  0.000  0.200  0.000  0.000  0.000
  0.000  0.000  0.200  0.000  0.000
  0.000  0.000  0.000  0.200  0.000
  0.000  0.000  0.000  0.000  0.200
atomic mag. moment =     4.000000
atom   14   Tr[ns(na)] (up, down, total) =   5.00000  1.00000  6.00000
   spin  1
    eigenvalues: 
  1.000  1.000  1.000  1.000  1.000
    eigenvectors:
  1.000  0.000  0.000  0.000  0.000
  0.000  1.000  0.000  0.000  0.000
  0.000  0.000  1.000  0.000  0.000
  0.000  0.000  0.000  1.000  0.000
  0.000  0.000  0.000  0.000  1.000
    occupations:
  1.000  0.000  0.000  0.000  0.000
  0.000  1.000  0.000  0.000  0.000
  0.000  0.000  1.000  0.000  0.000
  0.000  0.000  0.000  1.000  0.000
  0.000  0.000  0.000  0.000  1.000
   spin  2
    eigenvalues: 
  0.200  0.200  0.200  0.200  0.200
    eigenvectors:
  1.000  0.000  0.000  0.000  0.000
  0.000  1.000  0.000  0.000  0.000
  0.000  0.000  1.000  0.000  0.000
  0.000  0.000  0.000  1.000  0.000
  0.000  0.000  0.000  0.000  1.000
    occupations:
  0.200  0.000  0.000  0.000  0.000
  0.000  0.200  0.000  0.000  0.000
  0.000  0.000  0.200  0.000  0.000
  0.000  0.000  0.000  0.200  0.000
  0.000  0.000  0.000  0.000  0.200
atomic mag. moment =     4.000000
atom   15   Tr[ns(na)] (up, down, total) =   5.00000  1.00000  6.00000
   spin  1
    eigenvalues: 
  1.000  1.000  1.000  1.000  1.000
    eigenvectors:
  1.000  0.000  0.000  0.000  0.000
  0.000  1.000  0.000  0.000  0.000
  0.000  0.000  1.000  0.000  0.000
  0.000  0.000  0.000  1.000  0.000
  0.000  0.000  0.000  0.000  1.000
    occupations:
  1.000  0.000  0.000  0.000  0.000
  0.000  1.000  0.000  0.000  0.000
  0.000  0.000  1.000  0.000  0.000
  0.000  0.000  0.000  1.000  0.000
  0.000  0.000  0.000  0.000  1.000
   spin  2
    eigenvalues: 
  0.200  0.200  0.200  0.200  0.200
    eigenvectors:
  1.000  0.000  0.000  0.000  0.000
  0.000  1.000  0.000  0.000  0.000
  0.000  0.000  1.000  0.000  0.000
  0.000  0.000  0.000  1.000  0.000
  0.000  0.000  0.000  0.000  1.000
    occupations:
  0.200  0.000  0.000  0.000  0.000
  0.000  0.200  0.000  0.000  0.000
  0.000  0.000  0.200  0.000  0.000
  0.000  0.000  0.000  0.200  0.000
  0.000  0.000  0.000  0.000  0.200
atomic mag. moment =     4.000000
atom   16   Tr[ns(na)] (up, down, total) =   5.00000  1.00000  6.00000
   spin  1
    eigenvalues: 
  1.000  1.000  1.000  1.000  1.000
    eigenvectors:
  1.000  0.000  0.000  0.000  0.000
  0.000  1.000  0.000  0.000  0.000
  0.000  0.000  1.000  0.000  0.000
  0.000  0.000  0.000  1.000  0.000
  0.000  0.000  0.000  0.000  1.000
    occupations:
  1.000  0.000  0.000  0.000  0.000
  0.000  1.000  0.000  0.000  0.000
  0.000  0.000  1.000  0.000  0.000
  0.000  0.000  0.000  1.000  0.000
  0.000  0.000  0.000  0.000  1.000
   spin  2
    eigenvalues: 
  0.200  0.200  0.200  0.200  0.200
    eigenvectors:
  1.000  0.000  0.000  0.000  0.000
  0.000  1.000  0.000  0.000  0.000
  0.000  0.000  1.000  0.000  0.000
  0.000  0.000  0.000  1.000  0.000
  0.000  0.000  0.000  0.000  1.000
    occupations:
  0.200  0.000  0.000  0.000  0.000
  0.000  0.200  0.000  0.000  0.000
  0.000  0.000  0.200  0.000  0.000
  0.000  0.000  0.000  0.200  0.000
  0.000  0.000  0.000  0.000  0.200
atomic mag. moment =     4.000000
atom   17   Tr[ns(na)] (up, down, total) =   5.00000  1.00000  6.00000
   spin  1
    eigenvalues: 
  1.000  1.000  1.000  1.000  1.000
    eigenvectors:
  1.000  0.000  0.000  0.000  0.000
  0.000  1.000  0.000  0.000  0.000
  0.000  0.000  1.000  0.000  0.000
  0.000  0.000  0.000  1.000  0.000
  0.000  0.000  0.000  0.000  1.000
    occupations:
  1.000  0.000  0.000  0.000  0.000
  0.000  1.000  0.000  0.000  0.000
  0.000  0.000  1.000  0.000  0.000
  0.000  0.000  0.000  1.000  0.000
  0.000  0.000  0.000  0.000  1.000
   spin  2
    eigenvalues: 
  0.200  0.200  0.200  0.200  0.200
    eigenvectors:
  1.000  0.000  0.000  0.000  0.000
  0.000  1.000  0.000  0.000  0.000
  0.000  0.000  1.000  0.000  0.000
  0.000  0.000  0.000  1.000  0.000
  0.000  0.000  0.000  0.000  1.000
    occupations:
  0.200  0.000  0.000  0.000  0.000
  0.000  0.200  0.000  0.000  0.000
  0.000  0.000  0.200  0.000  0.000
  0.000  0.000  0.000  0.200  0.000
  0.000  0.000  0.000  0.000  0.200
atomic mag. moment =     4.000000
atom   18   Tr[ns(na)] (up, down, total) =   5.00000  1.00000  6.00000
   spin  1
    eigenvalues: 
  1.000  1.000  1.000  1.000  1.000
    eigenvectors:
  1.000  0.000  0.000  0.000  0.000
  0.000  1.000  0.000  0.000  0.000
  0.000  0.000  1.000  0.000  0.000
  0.000  0.000  0.000  1.000  0.000
  0.000  0.000  0.000  0.000  1.000
    occupations:
  1.000  0.000  0.000  0.000  0.000
  0.000  1.000  0.000  0.000  0.000
  0.000  0.000  1.000  0.000  0.000
  0.000  0.000  0.000  1.000  0.000
  0.000  0.000  0.000  0.000  1.000
   spin  2
    eigenvalues: 
  0.200  0.200  0.200  0.200  0.200
    eigenvectors:
  1.000  0.000  0.000  0.000  0.000
  0.000  1.000  0.000  0.000  0.000
  0.000  0.000  1.000  0.000  0.000
  0.000  0.000  0.000  1.000  0.000
  0.000  0.000  0.000  0.000  1.000
    occupations:
  0.200  0.000  0.000  0.000  0.000
  0.000  0.200  0.000  0.000  0.000
  0.000  0.000  0.200  0.000  0.000
  0.000  0.000  0.000  0.200  0.000
  0.000  0.000  0.000  0.000  0.200
atomic mag. moment =     4.000000
atom   19   Tr[ns(na)] (up, down, total) =   5.00000  1.00000  6.00000
   spin  1
    eigenvalues: 
  1.000  1.000  1.000  1.000  1.000
    eigenvectors:
  1.000  0.000  0.000  0.000  0.000
  0.000  1.000  0.000  0.000  0.000
  0.000  0.000  1.000  0.000  0.000
  0.000  0.000  0.000  1.000  0.000
  0.000  0.000  0.000  0.000  1.000
    occupations:
  1.000  0.000  0.000  0.000  0.000
  0.000  1.000  0.000  0.000  0.000
  0.000  0.000  1.000  0.000  0.000
  0.000  0.000  0.000  1.000  0.000
  0.000  0.000  0.000  0.000  1.000
   spin  2
    eigenvalues: 
  0.200  0.200  0.200  0.200  0.200
    eigenvectors:
  1.000  0.000  0.000  0.000  0.000
  0.000  1.000  0.000  0.000  0.000
  0.000  0.000  1.000  0.000  0.000
  0.000  0.000  0.000  1.000  0.000
  0.000  0.000  0.000  0.000  1.000
    occupations:
  0.200  0.000  0.000  0.000  0.000
  0.000  0.200  0.000  0.000  0.000
  0.000  0.000  0.200  0.000  0.000
  0.000  0.000  0.000  0.200  0.000
  0.000  0.000  0.000  0.000  0.200
atomic mag. moment =     4.000000
atom   20   Tr[ns(na)] (up, down, total) =   5.00000  1.00000  6.00000
   spin  1
    eigenvalues: 
  1.000  1.000  1.000  1.000  1.000
    eigenvectors:
  1.000  0.000  0.000  0.000  0.000
  0.000  1.000  0.000  0.000  0.000
  0.000  0.000  1.000  0.000  0.000
  0.000  0.000  0.000  1.000  0.000
  0.000  0.000  0.000  0.000  1.000
    occupations:
  1.000  0.000  0.000  0.000  0.000
  0.000  1.000  0.000  0.000  0.000
  0.000  0.000  1.000  0.000  0.000
  0.000  0.000  0.000  1.000  0.000
  0.000  0.000  0.000  0.000  1.000
   spin  2
    eigenvalues: 
  0.200  0.200  0.200  0.200  0.200
    eigenvectors:
  1.000  0.000  0.000  0.000  0.000
  0.000  1.000  0.000  0.000  0.000
  0.000  0.000  1.000  0.000  0.000
  0.000  0.000  0.000  1.000  0.000
  0.000  0.000  0.000  0.000  1.000
    occupations:
  0.200  0.000  0.000  0.000  0.000
  0.000  0.200  0.000  0.000  0.000
  0.000  0.000  0.200  0.000  0.000
  0.000  0.000  0.000  0.200  0.000
  0.000  0.000  0.000  0.000  0.200
atomic mag. moment =     4.000000
N of occupied +U levels = 120.0000000
 --- exit write_ns ---
 Atomic wfc used for LDA+U Projector are NOT orthogonalized
     Starting wfc are  272 randomized atomic wfcs
     Checking if some PAW data can be deallocated... 
       node    0, deallocated PAW data for type:  2
       node    0, deallocated PAW data for type:  3
       node    1, deallocated PAW data for type:  2
       node    1, deallocated PAW data for type:  3
       node    2, deallocated PAW data for type:  2
       node    2, deallocated PAW data for type:  3
       node    3, deallocated PAW data for type:  2
       node    3, deallocated PAW data for type:  3
       node    4, deallocated PAW data for type:  2
       node    4, deallocated PAW data for type:  3
       node    5, deallocated PAW data for type:  2
       node    5, deallocated PAW data for type:  3
       node    6, deallocated PAW data for type:  2
       node    6, deallocated PAW data for type:  3
       node    7, deallocated PAW data for type:  2
       node    7, deallocated PAW data for type:  3
       node    8, deallocated PAW data for type:  2
       node    8, deallocated PAW data for type:  3
       node    9, deallocated PAW data for type:  2
       node    9, deallocated PAW data for type:  3
       node   10, deallocated PAW data for type:  2
       node   10, deallocated PAW data for type:  3
       node   11, deallocated PAW data for type:  2
       node   11, deallocated PAW data for type:  3
       node   12, deallocated PAW data for type:  2
       node   12, deallocated PAW data for type:  3
       node   13, deallocated PAW data for type:  2
       node   13, deallocated PAW data for type:  3
       node   14, deallocated PAW data for type:  2
       node   14, deallocated PAW data for type:  3
       node   15, deallocated PAW data for type:  2
       node   15, deallocated PAW data for type:  3
       node   16, deallocated PAW data for type:  2
       node   16, deallocated PAW data for type:  3
       node   17, deallocated PAW data for type:  2
       node   17, deallocated PAW data for type:  3
       node   18, deallocated PAW data for type:  2
       node   18, deallocated PAW data for type:  3
       node   19, deallocated PAW data for type:  2
       node   19, deallocated PAW data for type:  3
       node   20, deallocated PAW data for type:  2
       node   20, deallocated PAW data for type:  3
       node   21, deallocated PAW data for type:  2
       node   21, deallocated PAW data for type:  3
       node   22, deallocated PAW data for type:  2
       node   22, deallocated PAW data for type:  3
       node   23, deallocated PAW data for type:  2
       node   23, deallocated PAW data for type:  3
       node   24, deallocated PAW data for type:  2
       node   24, deallocated PAW data for type:  3
       node   25, deallocated PAW data for type:  2
       node   25, deallocated PAW data for type:  3
       node   26, deallocated PAW data for type:  2
       node   26, deallocated PAW data for type:  3
       node   27, deallocated PAW data for type:  2
       node   27, deallocated PAW data for type:  3
       node   28, deallocated PAW data for type:  2
       node   28, deallocated PAW data for type:  3
       node   29, deallocated PAW data for type:  2
       node   29, deallocated PAW data for type:  3
       node   30, deallocated PAW data for type:  2
       node   30, deallocated PAW data for type:  3
       node   31, deallocated PAW data for type:  2
       node   31, deallocated PAW data for type:  3
       node   32, deallocated PAW data for type:  2
       node   32, deallocated PAW data for type:  3
       node   33, deallocated PAW data for type:  2
       node   33, deallocated PAW data for type:  3
       node   34, deallocated PAW data for type:  2
       node   34, deallocated PAW data for type:  3
       node   35, deallocated PAW data for type:  2
       node   35, deallocated PAW data for type:  3
       node   36, deallocated PAW data for type:  2
       node   36, deallocated PAW data for type:  3
       node   37, deallocated PAW data for type:  2
       node   37, deallocated PAW data for type:  3
       node   38, deallocated PAW data for type:  2
       node   38, deallocated PAW data for type:  3
       node   39, deallocated PAW data for type:  2
       node   39, deallocated PAW data for type:  3
       node   40, deallocated PAW data for type:  1
       node   40, deallocated PAW data for type:  3
       node   41, deallocated PAW data for type:  1
       node   41, deallocated PAW data for type:  3
       node   42, deallocated PAW data for type:  1
       node   42, deallocated PAW data for type:  2
       node   43, deallocated PAW data for type:  1
       node   43, deallocated PAW data for type:  2
       node   44, deallocated PAW data for type:  1
       node   44, deallocated PAW data for type:  2
       node   45, deallocated PAW data for type:  1
       node   45, deallocated PAW data for type:  3
       node   46, deallocated PAW data for type:  1
       node   46, deallocated PAW data for type:  2
       node   47, deallocated PAW data for type:  1
       node   47, deallocated PAW data for type:  2

     total cpu time spent up to now is      173.7 secs

     per-process dynamical memory:   319.5 Mb

     Self-consistent Calculation

     iteration #  1     ecut=    95.00 Ry     beta=0.50
     Davidson diagonalization with overlap
     ethr =  1.00E-02,  avg # of iterations =  2.9
 --- enter write_ns ---
 LDA+U parameters:
U( 1)     =  0.00000000
alpha( 1) =  0.00000000
atom    1   Tr[ns(na)] (up, down, total) =   4.97690  1.24966  6.22656
   spin  1
    eigenvalues: 
  0.993  0.995  0.996  0.996  0.997
    eigenvectors:
  0.931  0.000  0.068  0.000  0.000
  0.000  0.333  0.000  0.002  0.665
  0.000  0.667  0.000  0.002  0.332
  0.007  0.000  0.089  0.901  0.003
  0.061  0.000  0.843  0.096  0.000
    occupations:
  0.993  0.000 -0.000  0.000 -0.001
  0.000  0.996 -0.001  0.000  0.000
 -0.000 -0.001  0.995  0.000  0.000
  0.000  0.000  0.000  0.996  0.000
 -0.001  0.000  0.000  0.000  0.996
   spin  2
    eigenvalues: 
  0.183  0.211  0.245  0.278  0.332
    eigenvectors:
  0.000  0.000  0.938  0.000  0.062
  0.333  0.667  0.000  0.000  0.000
  0.667  0.333  0.000  0.000  0.000
  0.000  0.000  0.006  0.888  0.106
  0.000  0.000  0.056  0.112  0.832
    occupations:
  0.250 -0.000 -0.000 -0.007  0.020
 -0.000  0.202 -0.013 -0.000 -0.000
 -0.000 -0.013  0.193  0.000 -0.000
 -0.007 -0.000  0.000  0.284 -0.015
  0.020 -0.000 -0.000 -0.015  0.321
atomic mag. moment =     3.727237
atom    2   Tr[ns(na)] (up, down, total) =   4.97671  1.24636  6.22306
   spin  1
    eigenvalues: 
  0.993  0.995  0.996  0.996  0.997
    eigenvectors:
  0.948  0.000  0.051  0.000  0.000
  0.000  0.338  0.000  0.000  0.661
  0.000  0.661  0.000  0.000  0.339
  0.005  0.000  0.111  0.884  0.000
  0.046  0.000  0.837  0.116  0.000
    occupations:
  0.993 -0.000  0.000  0.000 -0.001
 -0.000  0.996 -0.001 -0.000 -0.000
  0.000 -0.001  0.995 -0.000  0.000
  0.000 -0.000 -0.000  0.996  0.000
 -0.001 -0.000  0.000  0.000  0.996
   spin  2
    eigenvalues: 
  0.182  0.211  0.245  0.278  0.330
    eigenvectors:
  0.000  0.000  0.940  0.000  0.060
  0.330  0.670  0.000  0.000  0.000
  0.670  0.330  0.000  0.000  0.000
  0.000  0.000  0.008  0.888  0.105
  0.000  0.000  0.053  0.112  0.835
    occupations:
  0.250  0.000  0.000 -0.007  0.019
  0.000  0.202 -0.014  0.000  0.000
  0.000 -0.014  0.192 -0.000  0.001
 -0.007  0.000 -0.000  0.283 -0.015
  0.019  0.000  0.001 -0.015  0.320
atomic mag. moment =     3.730352
atom    3   Tr[ns(na)] (up, down, total) =   4.97671  1.24727  6.22398
   spin  1
    eigenvalues: 
  0.993  0.995  0.996  0.996  0.997
    eigenvectors:
  0.947  0.000  0.052  0.000  0.000
  0.000  0.329  0.000  0.001  0.670
  0.000  0.671  0.000  0.001  0.328
  0.006  0.000  0.092  0.900  0.002
  0.047  0.000  0.855  0.098  0.000
    occupations:
  0.993 -0.000  0.000  0.000 -0.001
 -0.000  0.996 -0.001 -0.000 -0.000
  0.000 -0.001  0.995  0.000 -0.000
  0.000 -0.000  0.000  0.996  0.000
 -0.001 -0.000 -0.000  0.000  0.996
   spin  2
    eigenvalues: 
  0.183  0.211  0.244  0.278  0.331
    eigenvectors:
  0.000  0.000  0.940  0.000  0.060
  0.337  0.663  0.000  0.000  0.000
  0.663  0.337  0.000  0.000  0.000
  0.000  0.000  0.009  0.883  0.108
  0.000  0.000  0.051  0.117  0.832
    occupations:
  0.250 -0.000 -0.000 -0.007  0.019
 -0.000  0.202 -0.013 -0.000 -0.000
 -0.000 -0.013  0.192 -0.000  0.000
 -0.007 -0.000 -0.000  0.284 -0.015
  0.019 -0.000  0.000 -0.015  0.320
atomic mag. moment =     3.729438
atom    4   Tr[ns(na)] (up, down, total) =   4.97682  1.24544  6.22226
   spin  1
    eigenvalues: 
  0.993  0.995  0.996  0.996  0.997
    eigenvectors:
  0.949  0.000  0.051  0.000  0.000
  0.000  0.332  0.000  0.001  0.668
  0.000  0.668  0.000  0.000  0.332
  0.006  0.000  0.119  0.875  0.000
  0.046  0.000  0.830  0.124  0.000
    occupations:
  0.993  0.000 -0.000  0.000 -0.001
  0.000  0.996 -0.001  0.000 -0.000
 -0.000 -0.001  0.995  0.000  0.000
  0.000  0.000  0.000  0.996  0.000
 -0.001 -0.000  0.000  0.000  0.996
   spin  2
    eigenvalues: 
  0.182  0.211  0.243  0.278  0.331
    eigenvectors:
  0.000  0.000  0.941  0.000  0.059
  0.337  0.663  0.000  0.000  0.000
  0.663  0.337  0.000  0.000  0.000
  0.000  0.000  0.006  0.892  0.102
  0.000  0.000  0.053  0.108  0.839
    occupations:
  0.249 -0.000  0.000 -0.007  0.019
 -0.000  0.201 -0.014 -0.000  0.000
  0.000 -0.014  0.192 -0.000  0.000
 -0.007 -0.000 -0.000  0.283 -0.015
  0.019  0.000  0.000 -0.015  0.321
atomic mag. moment =     3.731384
atom    5   Tr[ns(na)] (up, down, total) =   4.97618  2.19495  7.17113
   spin  1
    eigenvalues: 
  0.994  0.994  0.995  0.996  0.997
    eigenvectors:
  0.952  0.014  0.004  0.029  0.000
  0.002  0.000  0.331  0.000  0.667
  0.003  0.000  0.664  0.000  0.333
  0.003  0.889  0.000  0.108  0.000
  0.040  0.097  0.001  0.863  0.000
    occupations:
  0.994  0.000  0.000  0.000 -0.000
  0.000  0.996 -0.001  0.000  0.000
  0.000 -0.001  0.996 -0.000 -0.000
  0.000  0.000 -0.000  0.994 -0.001
 -0.000  0.000 -0.000 -0.001  0.996
   spin  2
    eigenvalues: 
  0.375  0.377  0.473  0.484  0.485
    eigenvectors:
  0.254  0.003  0.741  0.001  0.002
  0.007  0.659  0.000  0.022  0.311
  0.003  0.331  0.001  0.048  0.618
  0.082  0.001  0.015  0.837  0.064
  0.654  0.007  0.243  0.092  0.005
    occupations:
  0.448  0.000  0.000 -0.015  0.040
  0.000  0.413  0.051 -0.000 -0.001
  0.000  0.051  0.449 -0.000 -0.000
 -0.015 -0.000 -0.000  0.475  0.026
  0.040 -0.001 -0.000  0.026  0.410
atomic mag. moment =     2.781230
atom    6   Tr[ns(na)] (up, down, total) =   4.97628  2.19548  7.17176
   spin  1
    eigenvalues: 
  0.994  0.994  0.995  0.996  0.997
    eigenvectors:
  0.950  0.017  0.002  0.030  0.000
  0.001  0.000  0.342  0.002  0.654
  0.002  0.000  0.654  0.000  0.344
  0.034  0.857  0.000  0.109  0.000
  0.013  0.125  0.001  0.859  0.001
    occupations:
  0.994 -0.000 -0.000  0.000 -0.000
 -0.000  0.996 -0.001 -0.000 -0.000
 -0.000 -0.001  0.996 -0.000  0.000
  0.000 -0.000 -0.000  0.994 -0.001
 -0.000 -0.000  0.000 -0.001  0.996
   spin  2
    eigenvalues: 
  0.376  0.377  0.471  0.484  0.486
    eigenvectors:
  0.254  0.000  0.745  0.000  0.001
  0.001  0.666  0.000  0.005  0.327
  0.000  0.333  0.001  0.012  0.655
  0.082  0.000  0.028  0.876  0.014
  0.663  0.001  0.226  0.107  0.003
    occupations:
  0.447  0.000 -0.000 -0.014  0.039
  0.000  0.413  0.051 -0.000 -0.000
 -0.000  0.051  0.450  0.000 -0.000
 -0.014 -0.000  0.000  0.475  0.026
  0.039 -0.000 -0.000  0.026  0.410
atomic mag. moment =     2.780795
atom    7   Tr[ns(na)] (up, down, total) =   4.97606  2.19057  7.16663
   spin  1
    eigenvalues: 
  0.994  0.994  0.995  0.996  0.997
    eigenvectors:
  0.979  0.000  0.000  0.021  0.000
  0.000  0.000  0.332  0.001  0.667
  0.000  0.000  0.668  0.001  0.332
  0.002  0.888  0.000  0.110  0.000
  0.020  0.111  0.000  0.867  0.001
    occupations:
  0.994  0.000  0.000  0.000 -0.000
  0.000  0.996 -0.001  0.000 -0.000
  0.000 -0.001  0.996  0.000  0.000
  0.000  0.000  0.000  0.994 -0.001
 -0.000 -0.000  0.000 -0.001  0.996
   spin  2
    eigenvalues: 
  0.375  0.377  0.471  0.483  0.484
    eigenvectors:
  0.250  0.002  0.748  0.000  0.000
  0.007  0.658  0.000  0.327  0.008
  0.004  0.332  0.000  0.648  0.016
  0.082  0.001  0.031  0.020  0.865
  0.658  0.007  0.220  0.004  0.111
    occupations:
  0.447  0.000 -0.000 -0.014  0.039
  0.000  0.413  0.050 -0.000  0.000
 -0.000  0.050  0.448 -0.000  0.000
 -0.014 -0.000 -0.000  0.475  0.027
  0.039  0.000  0.000  0.027  0.409
atomic mag. moment =     2.785482
atom    8   Tr[ns(na)] (up, down, total) =   4.97596  2.18952  7.16549
   spin  1
    eigenvalues: 
  0.994  0.994  0.995  0.996  0.997
    eigenvectors:
  0.976  0.001  0.000  0.022  0.000
  0.000  0.000  0.332  0.002  0.666
  0.000  0.000  0.668  0.001  0.331
  0.000  0.889  0.000  0.110  0.000
  0.024  0.109  0.000  0.865  0.002
    occupations:
  0.994 -0.000  0.000  0.000 -0.000
 -0.000  0.996 -0.001  0.000  0.000
  0.000 -0.001  0.996  0.000 -0.000
  0.000  0.000  0.000  0.994 -0.001
 -0.000  0.000 -0.000 -0.001  0.996
   spin  2
    eigenvalues: 
  0.375  0.377  0.470  0.483  0.484
    eigenvectors:
  0.251  0.000  0.749  0.000  0.000
  0.000  0.668  0.000  0.322  0.010
  0.000  0.332  0.000  0.648  0.020
  0.084  0.000  0.028  0.026  0.863
  0.665  0.000  0.223  0.004  0.107
    occupations:
  0.446 -0.001  0.000 -0.014  0.039
 -0.001  0.412  0.050  0.000 -0.000
  0.000  0.050  0.448 -0.000  0.000
 -0.014  0.000 -0.000  0.474  0.027
  0.039 -0.000  0.000  0.027  0.409
atomic mag. moment =     2.786437
atom    9   Tr[ns(na)] (up, down, total) =   4.97703  2.17876  7.15579
   spin  1
    eigenvalues: 
  0.994  0.995  0.995  0.996  0.997
    eigenvectors:
  0.855  0.000  0.000  0.143  0.002
  0.000  0.000  0.330  0.003  0.666
  0.000  0.000  0.670  0.001  0.328
  0.013  0.892  0.000  0.094  0.000
  0.132  0.108  0.000  0.757  0.003
    occupations:
  0.994 -0.000  0.000  0.000 -0.001
 -0.000  0.996 -0.001  0.000  0.000
  0.000 -0.001  0.996 -0.000 -0.000
  0.000  0.000 -0.000  0.995 -0.000
 -0.001  0.000 -0.000 -0.000  0.996
   spin  2
    eigenvalues: 
  0.376  0.378  0.464  0.477  0.483
    eigenvectors:
  0.017  0.233  0.000  0.000  0.750
  0.624  0.046  0.329  0.001  0.000
  0.309  0.021  0.668  0.001  0.000
  0.005  0.079  0.001  0.889  0.026
  0.045  0.621  0.001  0.109  0.224
    occupations:
  0.457 -0.000  0.001 -0.015  0.043
 -0.000  0.405  0.041  0.001  0.001
  0.001  0.041  0.435  0.000 -0.000
 -0.015  0.001  0.000  0.469  0.023
  0.043  0.001 -0.000  0.023  0.412
atomic mag. moment =     2.798267
atom   10   Tr[ns(na)] (up, down, total) =   4.97688  2.22147  7.19835
   spin  1
    eigenvalues: 
  0.994  0.995  0.995  0.996  0.997
    eigenvectors:
  0.882  0.000  0.001  0.115  0.002
  0.000  0.001  0.319  0.007  0.674
  0.001  0.001  0.678  0.002  0.318
  0.007  0.901  0.002  0.088  0.001
  0.110  0.097  0.000  0.788  0.005
    occupations:
  0.994  0.000 -0.000  0.000 -0.001
  0.000  0.996 -0.001  0.000 -0.000
 -0.000 -0.001  0.996  0.000  0.000
  0.000  0.000  0.000  0.995 -0.000
 -0.001 -0.000  0.000 -0.000  0.996
   spin  2
    eigenvalues: 
  0.378  0.380  0.484  0.484  0.496
    eigenvectors:
  0.001  0.257  0.000  0.003  0.739
  0.653  0.002  0.003  0.341  0.001
  0.344  0.001  0.006  0.647  0.002
  0.000  0.084  0.872  0.010  0.034
  0.002  0.655  0.119  0.000  0.224
    occupations:
  0.466 -0.000 -0.000 -0.017  0.047
 -0.000  0.414  0.051 -0.000 -0.000
 -0.000  0.051  0.447  0.000 -0.000
 -0.017 -0.000  0.000  0.475  0.023
  0.047 -0.000 -0.000  0.023  0.418
atomic mag. moment =     2.755417
atom   11   Tr[ns(na)] (up, down, total) =   4.97689  2.21971  7.19660
   spin  1
    eigenvalues: 
  0.994  0.995  0.995  0.996  0.997
    eigenvectors:
  0.879  0.002  0.001  0.117  0.001
  0.001  0.000  0.354  0.001  0.644
  0.000  0.001  0.644  0.001  0.354
  0.028  0.863  0.000  0.108  0.000
  0.091  0.134  0.001  0.772  0.002
    occupations:
  0.994  0.000  0.000  0.000 -0.001
  0.000  0.996 -0.001 -0.000 -0.000
  0.000 -0.001  0.996  0.000  0.000
  0.000 -0.000  0.000  0.995 -0.000
 -0.001 -0.000  0.000 -0.000  0.996
   spin  2
    eigenvalues: 
  0.377  0.380  0.483  0.485  0.495
    eigenvectors:
  0.000  0.259  0.000  0.001  0.740
  0.676  0.001  0.001  0.322  0.001
  0.323  0.001  0.002  0.674  0.001
  0.000  0.080  0.894  0.003  0.022
  0.001  0.659  0.102  0.000  0.238
    occupations:
  0.465 -0.000 -0.000 -0.016  0.047
 -0.000  0.412  0.050  0.000 -0.000
 -0.000  0.050  0.450 -0.000  0.000
 -0.016  0.000 -0.000  0.475  0.023
  0.047 -0.000  0.000  0.023  0.418
atomic mag. moment =     2.757180
atom   12   Tr[ns(na)] (up, down, total) =   4.97667  2.20990  7.18657
   spin  1
    eigenvalues: 
  0.994  0.995  0.995  0.996  0.997
    eigenvectors:
  0.885  0.000  0.000  0.114  0.001
  0.000  0.000  0.330  0.005  0.665
  0.000  0.000  0.670  0.002  0.328
  0.011  0.888  0.000  0.099  0.001
  0.104  0.112  0.000  0.780  0.005
    occupations:
  0.994 -0.000  0.000  0.000 -0.001
 -0.000  0.996 -0.001 -0.000  0.000
  0.000 -0.001  0.996 -0.000 -0.000
  0.000 -0.000 -0.000  0.995 -0.000
 -0.001  0.000 -0.000 -0.000  0.996
   spin  2
    eigenvalues: 
  0.378  0.381  0.478  0.481  0.492
    eigenvectors:
  0.000  0.253  0.000  0.000  0.747
  0.669  0.000  0.328  0.002  0.000
  0.331  0.000  0.665  0.004  0.000
  0.000  0.084  0.006  0.882  0.029
  0.000  0.663  0.001  0.111  0.224
    occupations:
  0.464  0.000  0.000 -0.016  0.045
  0.000  0.411  0.047  0.000 -0.000
  0.000  0.047  0.445  0.000 -0.000
 -0.016  0.000  0.000  0.473  0.023
  0.045 -0.000 -0.000  0.023  0.417
atomic mag. moment =     2.766775
atom   13   Tr[ns(na)] (up, down, total) =   4.97673  2.17513  7.15186
   spin  1
    eigenvalues: 
  0.994  0.995  0.995  0.996  0.996
    eigenvectors:
  0.913  0.019  0.003  0.058  0.007
  0.000  0.000  0.264  0.097  0.638
  0.000  0.000  0.705  0.000  0.295
  0.002  0.896  0.003  0.093  0.006
  0.084  0.086  0.025  0.752  0.053
    occupations:
  0.994 -0.000  0.000  0.000 -0.000
 -0.000  0.996 -0.000  0.000 -0.000
  0.000 -0.000  0.996  0.000 -0.000
  0.000  0.000  0.000  0.995 -0.000
 -0.000 -0.000 -0.000 -0.000  0.996
   spin  2
    eigenvalues: 
  0.375  0.381  0.445  0.480  0.494
    eigenvectors:
  0.187  0.002  0.505  0.000  0.306
  0.000  0.668  0.148  0.001  0.183
  0.014  0.325  0.273  0.001  0.386
  0.091  0.001  0.013  0.881  0.014
  0.707  0.004  0.061  0.117  0.111
    occupations:
  0.447  0.010  0.015 -0.012  0.035
  0.010  0.411  0.043 -0.000  0.011
  0.015  0.043  0.442 -0.008  0.015
 -0.012 -0.000 -0.008  0.470  0.027
  0.035  0.011  0.015  0.027  0.404
atomic mag. moment =     2.801598
atom   14   Tr[ns(na)] (up, down, total) =   4.97661  2.16877  7.14537
   spin  1
    eigenvalues: 
  0.994  0.995  0.995  0.996  0.996
    eigenvectors:
  0.918  0.013  0.003  0.060  0.007
  0.000  0.000  0.386  0.005  0.609
  0.000  0.000  0.582  0.080  0.338
  0.039  0.854  0.004  0.097  0.006
  0.042  0.133  0.026  0.759  0.040
    occupations:
  0.994 -0.000  0.000  0.000 -0.000
 -0.000  0.996 -0.000 -0.000  0.000
  0.000 -0.000  0.996 -0.000  0.000
  0.000 -0.000 -0.000  0.995 -0.000
 -0.000  0.000  0.000 -0.000  0.996
   spin  2
    eigenvalues: 
  0.374  0.381  0.443  0.479  0.492
    eigenvectors:
  0.187  0.001  0.515  0.001  0.297
  0.011  0.661  0.131  0.006  0.191
  0.003  0.334  0.280  0.001  0.382
  0.086  0.003  0.005  0.869  0.037
  0.714  0.001  0.069  0.123  0.094
    occupations:
  0.445 -0.010 -0.014 -0.013  0.034
 -0.010  0.411  0.042  0.001 -0.012
 -0.014  0.042  0.441  0.008 -0.014
 -0.013  0.001  0.008  0.470  0.026
  0.034 -0.012 -0.014  0.026  0.403
atomic mag. moment =     2.807842
atom   15   Tr[ns(na)] (up, down, total) =   4.97796  2.28344  7.26139
   spin  1
    eigenvalues: 
  0.995  0.995  0.995  0.996  0.997
    eigenvectors:
  0.905  0.001  0.000  0.093  0.001
  0.005  0.003  0.333  0.083  0.577
  0.002  0.006  0.659  0.041  0.292
  0.004  0.886  0.008  0.088  0.014
  0.084  0.104  0.001  0.695  0.116
    occupations:
  0.995  0.000 -0.000  0.000 -0.000
  0.000  0.996 -0.001 -0.000  0.000
 -0.000 -0.001  0.996  0.000 -0.000
  0.000 -0.000  0.000  0.995 -0.000
 -0.000  0.000 -0.000 -0.000  0.996
   spin  2
    eigenvalues: 
  0.380  0.386  0.495  0.497  0.526
    eigenvectors:
  0.160  0.080  0.000  0.760  0.000
  0.246  0.418  0.017  0.001  0.318
  0.123  0.213  0.032  0.000  0.632
  0.053  0.031  0.850  0.024  0.042
  0.419  0.258  0.101  0.215  0.007
    occupations:
  0.469  0.003 -0.002 -0.016  0.046
  0.003  0.431  0.066 -0.003 -0.003
 -0.002  0.066  0.477 -0.005 -0.001
 -0.016 -0.003 -0.005  0.487  0.027
  0.046 -0.003 -0.001  0.027  0.419
atomic mag. moment =     2.694520
atom   16   Tr[ns(na)] (up, down, total) =   4.97738  2.26569  7.24307
   spin  1
    eigenvalues: 
  0.994  0.995  0.995  0.996  0.997
    eigenvectors:
  0.924  0.000  0.000  0.069  0.007
  0.001  0.010  0.329  0.118  0.542
  0.000  0.019  0.642  0.062  0.277
  0.009  0.862  0.026  0.084  0.019
  0.065  0.109  0.003  0.667  0.155
    occupations:
  0.995 -0.000  0.000  0.000 -0.000
 -0.000  0.996 -0.001  0.000 -0.000
  0.000 -0.001  0.996 -0.000  0.000
  0.000  0.000 -0.000  0.995 -0.000
 -0.000 -0.000  0.000 -0.000  0.996
   spin  2
    eigenvalues: 
  0.379  0.386  0.488  0.491  0.521
    eigenvectors:
  0.174  0.069  0.757  0.000  0.000
  0.200  0.465  0.000  0.025  0.310
  0.100  0.234  0.000  0.047  0.619
  0.059  0.025  0.023  0.828  0.065
  0.467  0.207  0.219  0.101  0.007
    occupations:
  0.462 -0.002  0.001 -0.016  0.043
 -0.002  0.429  0.064  0.003  0.003
  0.001  0.064  0.474  0.006  0.001
 -0.016  0.003  0.006  0.484  0.027
  0.043  0.003  0.001  0.027  0.417
atomic mag. moment =     2.711686
atom   17   Tr[ns(na)] (up, down, total) =   4.97903  1.42612  6.40516
   spin  1
    eigenvalues: 
  0.995  0.995  0.996  0.996  0.997
    eigenvectors:
  0.805  0.000  0.027  0.136  0.031
  0.013  0.324  0.006  0.004  0.654
  0.008  0.674  0.000  0.005  0.313
  0.016  0.002  0.960  0.021  0.001
  0.158  0.000  0.007  0.834  0.001
    occupations:
  0.995 -0.000  0.000  0.000 -0.001
 -0.000  0.996 -0.001  0.000 -0.000
  0.000 -0.001  0.996  0.000  0.000
  0.000  0.000  0.000  0.996  0.000
 -0.001 -0.000  0.000  0.000  0.996
   spin  2
    eigenvalues: 
  0.235  0.250  0.266  0.321  0.354
    eigenvectors:
  0.000  0.097  0.849  0.000  0.054
  0.352  0.574  0.068  0.000  0.006
  0.645  0.302  0.047  0.002  0.003
  0.002  0.002  0.005  0.901  0.090
  0.000  0.026  0.030  0.096  0.847
    occupations:
  0.269 -0.002  0.002 -0.007  0.019
 -0.002  0.246 -0.008 -0.004  0.007
  0.002 -0.008  0.242 -0.002 -0.008
 -0.007 -0.004 -0.002  0.323 -0.008
  0.019  0.007 -0.008 -0.008  0.345
atomic mag. moment =     3.552912
atom   18   Tr[ns(na)] (up, down, total) =   4.97878  1.33643  6.31521
   spin  1
    eigenvalues: 
  0.994  0.995  0.996  0.996  0.997
    eigenvectors:
  0.837  0.050  0.102  0.009  0.001
  0.005  0.166  0.001  0.015  0.814
  0.051  0.777  0.000  0.000  0.172
  0.010  0.005  0.001  0.973  0.012
  0.097  0.002  0.896  0.003  0.001
    occupations:
  0.994 -0.000 -0.000  0.000 -0.001
 -0.000  0.997 -0.001  0.000 -0.000
 -0.000 -0.001  0.996 -0.000 -0.000
  0.000  0.000 -0.000  0.996  0.000
 -0.001 -0.000 -0.000  0.000  0.996
   spin  2
    eigenvalues: 
  0.220  0.237  0.247  0.288  0.344
    eigenvectors:
  0.000  0.019  0.869  0.058  0.054
  0.968  0.031  0.000  0.000  0.000
  0.031  0.899  0.035  0.036  0.000
  0.000  0.044  0.015  0.834  0.107
  0.000  0.008  0.081  0.072  0.839
    occupations:
  0.255 -0.001 -0.000  0.002  0.023
 -0.001  0.221 -0.003 -0.000 -0.002
 -0.000 -0.003  0.238  0.010  0.001
  0.002 -0.000  0.010  0.291 -0.019
  0.023 -0.002  0.001 -0.019  0.332
atomic mag. moment =     3.642353
atom   19   Tr[ns(na)] (up, down, total) =   4.97867  1.32656  6.30523
   spin  1
    eigenvalues: 
  0.994  0.995  0.996  0.996  0.997
    eigenvectors:
  0.857  0.030  0.100  0.011  0.001
  0.027  0.489  0.001  0.002  0.481
  0.013  0.470  0.000  0.009  0.508
  0.010  0.000  0.326  0.657  0.008
  0.094  0.010  0.573  0.322  0.001
    occupations:
  0.994  0.000  0.000  0.000 -0.001
  0.000  0.996 -0.001 -0.000  0.000
  0.000 -0.001  0.996  0.000  0.000
  0.000 -0.000  0.000  0.996  0.000
 -0.001  0.000  0.000  0.000  0.996
   spin  2
    eigenvalues: 
  0.219  0.234  0.245  0.285  0.343
    eigenvectors:
  0.000  0.009  0.886  0.054  0.051
  0.014  0.939  0.019  0.029  0.000
  0.985  0.012  0.000  0.002  0.001
  0.000  0.036  0.077  0.786  0.101
  0.001  0.004  0.019  0.129  0.847
    occupations:
  0.252 -0.000  0.000 -0.015  0.017
 -0.000  0.236  0.002  0.007  0.005
  0.000  0.002  0.220  0.001  0.004
 -0.015  0.007  0.001  0.286 -0.016
  0.017  0.005  0.004 -0.016  0.333
atomic mag. moment =     3.652113
atom   20   Tr[ns(na)] (up, down, total) =   4.97450  1.04053  6.01504
   spin  1
    eigenvalues: 
  0.989  0.996  0.996  0.996  0.997
    eigenvectors:
  0.994  0.000  0.005  0.000  0.001
  0.001  0.335  0.000  0.005  0.659
  0.000  0.655  0.001  0.005  0.339
  0.001  0.010  0.127  0.862  0.000
  0.004  0.000  0.866  0.128  0.001
    occupations:
  0.990  0.000 -0.000  0.000 -0.000
  0.000  0.996 -0.001 -0.000  0.000
 -0.000 -0.001  0.996 -0.000 -0.000
  0.000 -0.000 -0.000  0.996  0.000
 -0.000  0.000 -0.000  0.000  0.996
   spin  2
    eigenvalues: 
  0.153  0.183  0.186  0.243  0.276
    eigenvectors:
  0.000  0.006  0.000  0.735  0.259
  0.326  0.649  0.018  0.001  0.004
  0.665  0.333  0.000  0.001  0.002
  0.007  0.007  0.880  0.028  0.079
  0.001  0.005  0.102  0.235  0.656
    occupations:
  0.252 -0.005  0.003 -0.005  0.013
 -0.005  0.173 -0.014 -0.000 -0.005
  0.003 -0.014  0.163 -0.003  0.002
 -0.005 -0.000 -0.003  0.194 -0.025
  0.013 -0.005  0.002 -0.025  0.259
atomic mag. moment =     3.933969
N of occupied +U levels = 136.1505004
 --- exit write_ns ---

     negative rho (up, down):  0.000E+00 0.376E-03
 --- in v_hubbard ---
Hubbard energy    0.0000
 -------

     total cpu time spent up to now is      248.9 secs

     total energy              =   -6668.08234693 Ry
     Harris-Foulkes estimate   =   -6658.12295120 Ry
     estimated scf accuracy    <      32.93377766 Ry

     total magnetization       =    68.02 Bohr mag/cell
     absolute magnetization    =    70.63 Bohr mag/cell

     iteration #  2     ecut=    95.00 Ry     beta=0.50
     Davidson diagonalization with overlap
     ethr =  9.80E-03,  avg # of iterations =  1.0
 --- enter write_ns ---
 LDA+U parameters:
U( 1)     =  0.00000000
alpha( 1) =  0.00000000
atom    1   Tr[ns(na)] (up, down, total) =   4.97620  1.88478  6.86098
   spin  1
    eigenvalues: 
  0.994  0.995  0.995  0.995  0.997
    eigenvectors:
  0.902  0.098  0.000  0.000  0.000
  0.000  0.000  0.003  0.330  0.668
  0.000  0.000  0.006  0.661  0.332
  0.011  0.097  0.885  0.007  0.000
  0.087  0.805  0.106  0.002  0.000
    occupations:
  0.994  0.000 -0.000  0.000 -0.000
  0.000  0.996 -0.001  0.000 -0.000
 -0.000 -0.001  0.996 -0.000  0.000
  0.000  0.000 -0.000  0.995  0.000
 -0.000 -0.000  0.000  0.000  0.995
   spin  2
    eigenvalues: 
  0.298  0.316  0.342  0.447  0.482
    eigenvectors:
  0.000  0.000  0.710  0.290  0.000
  0.667  0.333  0.000  0.000  0.000
  0.333  0.667  0.000  0.000  0.000
  0.000  0.000  0.032  0.079  0.889
  0.000  0.000  0.258  0.631  0.111
    occupations:
  0.372 -0.000 -0.000 -0.016  0.045
 -0.000  0.304  0.008 -0.000 -0.000
 -0.000  0.008  0.310 -0.000 -0.000
 -0.016 -0.000 -0.000  0.475  0.021
  0.045 -0.000 -0.000  0.021  0.424
atomic mag. moment =     3.091411
atom    2   Tr[ns(na)] (up, down, total) =   4.97636  1.89006  6.86643
   spin  1
    eigenvalues: 
  0.994  0.995  0.995  0.995  0.997
    eigenvectors:
  0.894  0.106  0.000  0.001  0.000
  0.000  0.000  0.000  0.316  0.684
  0.000  0.000  0.000  0.684  0.316
  0.013  0.111  0.876  0.000  0.000
  0.092  0.784  0.124  0.000  0.000
    occupations:
  0.994  0.000  0.000  0.000 -0.000
  0.000  0.996 -0.001 -0.000  0.000
  0.000 -0.001  0.996 -0.000  0.000
  0.000 -0.000 -0.000  0.995  0.000
 -0.000  0.000  0.000  0.000  0.995
   spin  2
    eigenvalues: 
  0.299  0.317  0.342  0.448  0.483
    eigenvectors:
  0.000  0.000  0.710  0.290  0.000
  0.664  0.336  0.000  0.000  0.000
  0.336  0.664  0.000  0.000  0.000
  0.000  0.000  0.033  0.077  0.890
  0.000  0.000  0.257  0.632  0.110
    occupations:
  0.373  0.000  0.000 -0.016  0.045
  0.000  0.305  0.009  0.000  0.000
  0.000  0.009  0.311  0.000  0.000
 -0.016  0.000  0.000  0.476  0.021
  0.045  0.000  0.000  0.021  0.425
atomic mag. moment =     3.086299
atom    3   Tr[ns(na)] (up, down, total) =   4.97635  1.89020  6.86656
   spin  1
    eigenvalues: 
  0.994  0.995  0.995  0.995  0.997
    eigenvectors:
  0.890  0.109  0.000  0.001  0.000
  0.000  0.000  0.004  0.345  0.651
  0.000  0.000  0.007  0.643  0.349
  0.010  0.063  0.917  0.010  0.000
  0.100  0.827  0.072  0.001  0.000
    occupations:
  0.994 -0.000 -0.000  0.000 -0.000
 -0.000  0.996 -0.001  0.000  0.000
 -0.000 -0.001  0.996  0.000 -0.000
  0.000  0.000  0.000  0.995  0.000
 -0.000  0.000 -0.000  0.000  0.995
   spin  2
    eigenvalues: 
  0.299  0.318  0.342  0.448  0.483
    eigenvectors:
  0.000  0.000  0.710  0.290  0.000
  0.677  0.323  0.000  0.000  0.000
  0.323  0.677  0.000  0.000  0.000
  0.000  0.000  0.032  0.076  0.892
  0.000  0.000  0.258  0.634  0.108
    occupations:
  0.373 -0.000 -0.000 -0.016  0.045
 -0.000  0.305  0.009  0.000 -0.000
 -0.000  0.009  0.312 -0.000  0.000
 -0.016  0.000 -0.000  0.476  0.021
  0.045 -0.000  0.000  0.021  0.424
atomic mag. moment =     3.086146
atom    4   Tr[ns(na)] (up, down, total) =   4.97652  1.89019  6.86672
   spin  1
    eigenvalues: 
  0.994  0.995  0.995  0.995  0.997
    eigenvectors:
  0.888  0.111  0.001  0.000  0.000
  0.000  0.000  0.027  0.304  0.668
  0.000  0.001  0.055  0.612  0.332
  0.012  0.138  0.773  0.077  0.000
  0.100  0.750  0.144  0.007  0.000
    occupations:
  0.994 -0.000  0.000  0.000 -0.000
 -0.000  0.996 -0.001  0.000 -0.000
  0.000 -0.001  0.996  0.000 -0.000
  0.000  0.000  0.000  0.995  0.000
 -0.000 -0.000 -0.000  0.000  0.995
   spin  2
    eigenvalues: 
  0.300  0.318  0.342  0.447  0.483
    eigenvectors:
  0.000  0.000  0.713  0.287  0.000
  0.670  0.330  0.000  0.000  0.000
  0.330  0.670  0.000  0.000  0.000
  0.000  0.000  0.032  0.081  0.887
  0.000  0.000  0.255  0.632  0.113
    occupations:
  0.373 -0.000  0.000 -0.016  0.045
 -0.000  0.306  0.008 -0.000  0.000
  0.000  0.008  0.312  0.000  0.000
 -0.016 -0.000  0.000  0.476  0.021
  0.045  0.000  0.000  0.021  0.425
atomic mag. moment =     3.086333
atom    5   Tr[ns(na)] (up, down, total) =   4.95236  2.03231  6.98467
   spin  1
    eigenvalues: 
  0.989  0.990  0.991  0.991  0.992
    eigenvectors:
  0.993  0.000  0.000  0.006  0.000
  0.003  0.000  0.006  0.353  0.638
  0.004  0.000  0.009  0.626  0.362
  0.000  0.880  0.119  0.001  0.000
  0.000  0.120  0.866  0.014  0.000
    occupations:
  0.989 -0.000 -0.000 -0.000 -0.000
 -0.000  0.992 -0.000  0.000  0.000
 -0.000 -0.000  0.991 -0.000  0.000
 -0.000  0.000 -0.000  0.990 -0.000
 -0.000  0.000  0.000 -0.000  0.991
   spin  2
    eigenvalues: 
  0.355  0.355  0.430  0.431  0.462
    eigenvectors:
  0.005  0.319  0.015  0.660  0.000
  0.657  0.010  0.000  0.000  0.332
  0.327  0.005  0.000  0.000  0.667
  0.001  0.074  0.816  0.108  0.000
  0.010  0.591  0.168  0.231  0.000
    occupations:
  0.406  0.000  0.000 -0.012  0.033
  0.000  0.390  0.050 -0.000  0.000
  0.000  0.050  0.426 -0.000  0.000
 -0.012 -0.000 -0.000  0.424  0.016
  0.033  0.000  0.000  0.016  0.385
atomic mag. moment =     2.920057
atom    6   Tr[ns(na)] (up, down, total) =   4.95236  2.03055  6.98291
   spin  1
    eigenvalues: 
  0.989  0.990  0.991  0.991  0.992
    eigenvectors:
  0.993  0.000  0.000  0.007  0.000
  0.002  0.000  0.002  0.306  0.691
  0.005  0.000  0.004  0.681  0.309
  0.000  0.894  0.105  0.001  0.000
  0.000  0.106  0.889  0.005  0.000
    occupations:
  0.989  0.000  0.000  0.000  0.000
  0.000  0.992 -0.000  0.000 -0.000
  0.000 -0.000  0.991  0.000 -0.000
  0.000  0.000  0.000  0.990 -0.000
  0.000 -0.000 -0.000 -0.000  0.991
   spin  2
    eigenvalues: 
  0.354  0.355  0.429  0.430  0.461
    eigenvectors:
  0.000  0.324  0.004  0.672  0.000
  0.666  0.000  0.000  0.000  0.334
  0.334  0.000  0.000  0.000  0.666
  0.000  0.075  0.911  0.014  0.000
  0.000  0.601  0.085  0.313  0.000
    occupations:
  0.406 -0.000 -0.000 -0.012  0.033
 -0.000  0.390  0.050 -0.000 -0.000
 -0.000  0.050  0.426  0.000 -0.000
 -0.012 -0.000  0.000  0.424  0.016
  0.033 -0.000 -0.000  0.016  0.385
atomic mag. moment =     2.921803
atom    7   Tr[ns(na)] (up, down, total) =   4.95264  2.03539  6.98802
   spin  1
    eigenvalues: 
  0.989  0.990  0.991  0.991  0.992
    eigenvectors:
  0.996  0.000  0.004  0.000  0.000
  0.000  0.000  0.001  0.336  0.662
  0.001  0.001  0.000  0.663  0.336
  0.001  0.888  0.111  0.001  0.000
  0.003  0.111  0.884  0.000  0.001
    occupations:
  0.989 -0.000  0.000  0.000 -0.000
 -0.000  0.992 -0.000  0.000 -0.000
  0.000 -0.000  0.991  0.000  0.000
  0.000  0.000  0.000  0.990 -0.000
 -0.000 -0.000  0.000 -0.000  0.991
   spin  2
    eigenvalues: 
  0.355  0.356  0.430  0.432  0.462
    eigenvectors:
  0.021  0.305  0.015  0.659  0.000
  0.626  0.041  0.000  0.000  0.334
  0.314  0.020  0.000  0.000  0.666
  0.004  0.070  0.923  0.002  0.000
  0.035  0.564  0.062  0.339  0.000
    occupations:
  0.407  0.000 -0.000 -0.012  0.034
  0.000  0.391  0.050 -0.000  0.000
 -0.000  0.050  0.427 -0.000 -0.000
 -0.012 -0.000 -0.000  0.425  0.016
  0.034  0.000 -0.000  0.016  0.386
atomic mag. moment =     2.917251
atom    8   Tr[ns(na)] (up, down, total) =   4.95291  2.03750  6.99041
   spin  1
    eigenvalues: 
  0.989  0.990  0.991  0.991  0.992
    eigenvectors:
  0.994  0.000  0.004  0.000  0.002
  0.001  0.000  0.002  0.326  0.671
  0.001  0.000  0.000  0.674  0.325
  0.001  0.883  0.116  0.000  0.000
  0.003  0.117  0.878  0.001  0.001
    occupations:
  0.989  0.000 -0.000  0.000 -0.000
  0.000  0.992 -0.000 -0.000  0.000
 -0.000 -0.000  0.991 -0.000 -0.000
  0.000 -0.000 -0.000  0.990 -0.000
 -0.000  0.000 -0.000 -0.000  0.991
   spin  2
    eigenvalues: 
  0.356  0.356  0.431  0.432  0.463
    eigenvectors:
  0.004  0.321  0.003  0.672  0.000
  0.659  0.008  0.000  0.000  0.333
  0.329  0.004  0.000  0.000  0.667
  0.001  0.074  0.860  0.064  0.000
  0.007  0.593  0.136  0.264  0.000
    occupations:
  0.407 -0.000  0.000 -0.012  0.033
 -0.000  0.391  0.050  0.000 -0.000
  0.000  0.050  0.427  0.000  0.000
 -0.012  0.000  0.000  0.425  0.016
  0.033 -0.000  0.000  0.016  0.386
atomic mag. moment =     2.915405
atom    9   Tr[ns(na)] (up, down, total) =   4.95547  2.03471  6.99018
   spin  1
    eigenvalues: 
  0.989  0.991  0.991  0.992  0.992
    eigenvectors:
  0.000  0.426  0.088  0.484  0.002
  0.332  0.161  0.500  0.006  0.000
  0.668  0.082  0.248  0.002  0.000
  0.000  0.035  0.013  0.077  0.875
  0.000  0.296  0.150  0.431  0.123
    occupations:
  0.991 -0.000  0.000  0.000 -0.000
 -0.000  0.991 -0.001 -0.000  0.000
  0.000 -0.001  0.990 -0.000 -0.000
  0.000 -0.000 -0.000  0.992  0.000
 -0.000  0.000 -0.000  0.000  0.992
   spin  2
    eigenvalues: 
  0.368  0.372  0.422  0.436  0.436
    eigenvectors:
  0.003  0.248  0.000  0.023  0.726
  0.660  0.008  0.331  0.000  0.000
  0.328  0.004  0.668  0.000  0.000
  0.001  0.083  0.000  0.807  0.110
  0.008  0.658  0.000  0.169  0.165
    occupations:
  0.420  0.000  0.000 -0.009  0.026
  0.000  0.386  0.025  0.000  0.000
  0.000  0.025  0.405  0.000 -0.000
 -0.009  0.000  0.000  0.431  0.015
  0.026  0.000 -0.000  0.015  0.393
atomic mag. moment =     2.920757
atom   10   Tr[ns(na)] (up, down, total) =   4.95415  2.05274  7.00689
   spin  1
    eigenvalues: 
  0.989  0.991  0.991  0.992  0.992
    eigenvectors:
  0.001  0.000  0.221  0.687  0.091
  0.518  0.482  0.000  0.000  0.000
  0.481  0.517  0.002  0.000  0.000
  0.000  0.000  0.129  0.243  0.627
  0.000  0.000  0.648  0.070  0.281
    occupations:
  0.991 -0.000 -0.000  0.000 -0.000
 -0.000  0.990 -0.001  0.000 -0.000
 -0.000 -0.001  0.990  0.000 -0.000
  0.000  0.000  0.000  0.992  0.000
 -0.000 -0.000 -0.000  0.000  0.991
   spin  2
    eigenvalues: 
  0.366  0.371  0.436  0.436  0.444
    eigenvectors:
  0.000  0.245  0.013  0.001  0.741
  0.661  0.000  0.144  0.194  0.001
  0.338  0.000  0.282  0.377  0.002
  0.000  0.086  0.464  0.371  0.079
  0.000  0.669  0.096  0.057  0.177
    occupations:
  0.426 -0.000 -0.000 -0.011  0.029
 -0.000  0.390  0.033  0.000 -0.000
 -0.000  0.033  0.412  0.000 -0.000
 -0.011  0.000  0.000  0.431  0.015
  0.029 -0.000 -0.000  0.015  0.394
atomic mag. moment =     2.901416
atom   11   Tr[ns(na)] (up, down, total) =   4.95417  2.05392  7.00809
   spin  1
    eigenvalues: 
  0.989  0.991  0.991  0.992  0.992
    eigenvectors:
  0.001  0.002  0.261  0.650  0.085
  0.175  0.818  0.006  0.000  0.001
  0.823  0.177  0.000  0.000  0.000
  0.000  0.000  0.057  0.038  0.905
  0.000  0.003  0.676  0.312  0.008
    occupations:
  0.991  0.000  0.000  0.000 -0.000
  0.000  0.990 -0.001  0.000  0.000
  0.000 -0.001  0.989  0.000  0.000
  0.000  0.000  0.000  0.992  0.000
 -0.000  0.000  0.000  0.000  0.991
   spin  2
    eigenvalues: 
  0.366  0.371  0.436  0.437  0.444
    eigenvectors:
  0.000  0.245  0.013  0.000  0.742
  0.671  0.000  0.002  0.327  0.000
  0.329  0.000  0.003  0.669  0.000
  0.000  0.082  0.912  0.004  0.002
  0.000  0.672  0.070  0.000  0.257
    occupations:
  0.426 -0.000 -0.000 -0.009  0.030
 -0.000  0.389  0.033  0.000 -0.000
 -0.000  0.033  0.413 -0.000  0.000
 -0.009  0.000 -0.000  0.431  0.015
  0.030 -0.000  0.000  0.015  0.395
atomic mag. moment =     2.900252
atom   12   Tr[ns(na)] (up, down, total) =   4.95517  2.05357  7.00875
   spin  1
    eigenvalues: 
  0.990  0.991  0.991  0.992  0.992
    eigenvectors:
  0.000  0.002  0.127  0.658  0.213
  0.342  0.656  0.000  0.001  0.000
  0.657  0.342  0.000  0.000  0.001
  0.000  0.000  0.091  0.136  0.773
  0.000  0.000  0.782  0.205  0.013
    occupations:
  0.992  0.000 -0.000  0.000 -0.000
  0.000  0.990 -0.001 -0.000 -0.000
 -0.000 -0.001  0.990 -0.000  0.000
  0.000 -0.000 -0.000  0.992  0.000
 -0.000 -0.000  0.000  0.000  0.991
   spin  2
    eigenvalues: 
  0.368  0.372  0.433  0.436  0.445
    eigenvectors:
  0.000  0.238  0.000  0.000  0.762
  0.668  0.000  0.332  0.000  0.000
  0.332  0.000  0.668  0.000  0.000
  0.000  0.085  0.000  0.890  0.025
  0.000  0.677  0.000  0.110  0.213
    occupations:
  0.428  0.000  0.000 -0.010  0.029
  0.000  0.390  0.031  0.000  0.000
  0.000  0.031  0.411 -0.000 -0.000
 -0.010  0.000 -0.000  0.430  0.015
  0.029  0.000 -0.000  0.015  0.394
atomic mag. moment =     2.901598
atom   13   Tr[ns(na)] (up, down, total) =   4.95355  2.02210  6.97565
   spin  1
    eigenvalues: 
  0.989  0.990  0.991  0.992  0.992
    eigenvectors:
  0.941  0.011  0.007  0.040  0.001
  0.007  0.003  0.036  0.423  0.531
  0.017  0.004  0.082  0.432  0.465
  0.001  0.718  0.267  0.014  0.001
  0.034  0.264  0.609  0.091  0.002
    occupations:
  0.989  0.000  0.000  0.000 -0.000
  0.000  0.992 -0.000  0.000 -0.000
  0.000 -0.000  0.992  0.000 -0.000
  0.000  0.000  0.000  0.990 -0.000
 -0.000 -0.000 -0.000 -0.000  0.991
   spin  2
    eigenvalues: 
  0.359  0.363  0.408  0.427  0.466
    eigenvectors:
  0.235  0.008  0.597  0.000  0.159
  0.004  0.659  0.095  0.004  0.238
  0.039  0.307  0.172  0.003  0.480
  0.089  0.001  0.020  0.874  0.016
  0.633  0.025  0.116  0.119  0.108
    occupations:
  0.405  0.010  0.014 -0.010  0.027
  0.010  0.392  0.040 -0.000  0.013
  0.014  0.040  0.420 -0.010  0.017
 -0.010 -0.000 -0.010  0.421  0.015
  0.027  0.013  0.017  0.015  0.384
atomic mag. moment =     2.931450
atom   14   Tr[ns(na)] (up, down, total) =   4.95374  2.02331  6.97704
   spin  1
    eigenvalues: 
  0.989  0.990  0.991  0.992  0.992
    eigenvectors:
  0.942  0.013  0.004  0.040  0.001
  0.008  0.003  0.053  0.181  0.756
  0.016  0.008  0.079  0.657  0.240
  0.020  0.967  0.002  0.011  0.000
  0.015  0.009  0.862  0.110  0.004
    occupations:
  0.989 -0.000 -0.000  0.000 -0.000
 -0.000  0.992 -0.000 -0.000  0.000
 -0.000 -0.000  0.992 -0.000  0.000
  0.000 -0.000 -0.000  0.990 -0.000
 -0.000  0.000  0.000 -0.000  0.991
   spin  2
    eigenvalues: 
  0.359  0.363  0.408  0.428  0.466
    eigenvectors:
  0.240  0.005  0.601  0.000  0.154
  0.032  0.639  0.083  0.005  0.240
  0.001  0.337  0.178  0.001  0.482
  0.074  0.012  0.010  0.889  0.014
  0.652  0.006  0.128  0.104  0.110
    occupations:
  0.405 -0.009 -0.013 -0.010  0.027
 -0.009  0.392  0.040  0.000 -0.014
 -0.013  0.040  0.421  0.009 -0.016
 -0.010  0.000  0.009  0.422  0.015
  0.027 -0.014 -0.016  0.015  0.384
atomic mag. moment =     2.930430
atom   15   Tr[ns(na)] (up, down, total) =   4.95057  2.04949  7.00006
   spin  1
    eigenvalues: 
  0.989  0.990  0.990  0.991  0.992
    eigenvectors:
  0.948  0.001  0.050  0.000  0.002
  0.008  0.001  0.059  0.324  0.608
  0.005  0.009  0.026  0.667  0.293
  0.004  0.821  0.158  0.008  0.010
  0.036  0.169  0.707  0.001  0.086
    occupations:
  0.989  0.000 -0.000  0.000 -0.000
  0.000  0.991 -0.000 -0.000  0.000
 -0.000 -0.000  0.991  0.000 -0.000
  0.000 -0.000  0.000  0.990 -0.000
 -0.000  0.000 -0.000 -0.000  0.990
   spin  2
    eigenvalues: 
  0.347  0.355  0.427  0.441  0.480
    eigenvectors:
  0.111  0.184  0.000  0.704  0.000
  0.405  0.261  0.008  0.000  0.327
  0.202  0.132  0.015  0.000  0.651
  0.031  0.046  0.868  0.035  0.019
  0.250  0.377  0.110  0.260  0.003
    occupations:
  0.415  0.001 -0.001 -0.014  0.038
  0.001  0.393  0.060 -0.003 -0.005
 -0.001  0.060  0.436 -0.007 -0.000
 -0.014 -0.003 -0.007  0.422  0.016
  0.038 -0.005 -0.000  0.016  0.384
atomic mag. moment =     2.901073
atom   16   Tr[ns(na)] (up, down, total) =   4.95056  2.04499  6.99555
   spin  1
    eigenvalues: 
  0.988  0.990  0.990  0.990  0.992
    eigenvectors:
  0.962  0.031  0.006  0.000  0.001
  0.005  0.100  0.002  0.320  0.572
  0.004  0.014  0.036  0.656  0.290
  0.004  0.439  0.520  0.023  0.015
  0.025  0.417  0.435  0.001  0.122
    occupations:
  0.988 -0.000  0.000  0.000 -0.000
 -0.000  0.991 -0.001  0.000 -0.001
  0.000 -0.001  0.991 -0.000  0.000
  0.000  0.000 -0.000  0.990 -0.000
 -0.000 -0.001  0.000 -0.000  0.990
   spin  2
    eigenvalues: 
  0.348  0.357  0.426  0.436  0.477
    eigenvectors:
  0.125  0.181  0.000  0.694  0.000
  0.378  0.287  0.009  0.000  0.325
  0.190  0.144  0.018  0.000  0.648
  0.035  0.043  0.867  0.031  0.024
  0.272  0.345  0.106  0.275  0.003
    occupations:
  0.411 -0.001  0.000 -0.013  0.036
 -0.001  0.393  0.058  0.003  0.005
  0.000  0.058  0.435  0.007 -0.000
 -0.013  0.003  0.007  0.422  0.015
  0.036  0.005 -0.000  0.015  0.384
atomic mag. moment =     2.905570
atom   17   Tr[ns(na)] (up, down, total) =   4.97511  1.90034  6.87545
   spin  1
    eigenvalues: 
  0.994  0.994  0.995  0.995  0.996
    eigenvectors:
  0.221  0.007  0.760  0.006  0.005
  0.003  0.002  0.007  0.317  0.670
  0.005  0.003  0.004  0.667  0.321
  0.010  0.962  0.025  0.003  0.000
  0.761  0.025  0.204  0.007  0.003
    occupations:
  0.995 -0.000  0.000  0.000 -0.000
 -0.000  0.996 -0.000  0.000 -0.000
  0.000 -0.000  0.996  0.000  0.000
  0.000  0.000  0.000  0.994 -0.000
 -0.000 -0.000  0.000 -0.000  0.994
   spin  2
    eigenvalues: 
  0.310  0.340  0.353  0.432  0.465
    eigenvectors:
  0.029  0.605  0.001  0.366  0.000
  0.609  0.047  0.342  0.001  0.000
  0.331  0.012  0.655  0.000  0.001
  0.003  0.038  0.001  0.071  0.886
  0.027  0.298  0.000  0.562  0.113
    occupations:
  0.373 -0.002  0.002 -0.015  0.043
 -0.002  0.326  0.019 -0.003  0.005
  0.002  0.019  0.339 -0.001 -0.005
 -0.015 -0.003 -0.001  0.458  0.021
  0.043  0.005 -0.005  0.021  0.405
[...]
     atom    3 type  1   force =     0.00000040    0.00000807    0.00164642
     atom    4 type  1   force =    -0.00000517   -0.00000547    0.00184829
     atom    5 type  1   force =     0.00002716   -0.00000338    0.00310627
     atom    6 type  1   force =     0.00000271   -0.00002820    0.00311454
     atom    7 type  1   force =     0.00000564   -0.00002737    0.00218566
     atom    8 type  1   force =    -0.00000517    0.00002045    0.00226032
     atom    9 type  1   force =    -0.00003816   -0.00000654   -0.00282613
     atom   10 type  1   force =    -0.00012746   -0.00004419   -0.00518904
     atom   11 type  1   force =     0.00003871    0.00011297   -0.00509889
     atom   12 type  1   force =     0.00002818    0.00005575   -0.00418729
     atom   13 type  1   force =    -0.00006552   -0.00002027   -0.00002964
     atom   14 type  1   force =    -0.00001992    0.00005614   -0.00010617
     atom   15 type  1   force =     0.00004950   -0.00006822    0.00005355
     atom   16 type  1   force =     0.00001919   -0.00004185    0.00003651
     atom   17 type  1   force =    -0.00000518   -0.00003059   -0.00000813
     atom   18 type  1   force =    -0.00002676    0.00002734   -0.00005922
     atom   19 type  1   force =     0.00008445    0.00001959   -0.00002680
     atom   20 type  1   force =    -0.00000072    0.00002723   -0.00002912
     atom   21 type  2   force =    -0.00000552   -0.00003734   -0.00003396
     atom   22 type  3   force =     0.00001887   -0.00001081   -0.00002016
     atom   23 type  3   force =    -0.00004687   -0.00005537    0.00002477
     atom   24 type  2   force =    -0.00000371    0.00003404    0.00007213
     atom   25 type  3   force =     0.00003511    0.00000326   -0.00001809
     atom   26 type  3   force =     0.00002950    0.00002443    0.00007815
     The non-local contrib.  to forces
     atom    1 type  1   force =     0.00001812   -0.00002482   -0.19413313
     atom    2 type  1   force =    -0.00000540    0.00000502   -0.19352832
     atom    3 type  1   force =    -0.00001197    0.00001511   -0.19351147
     atom    4 type  1   force =    -0.00001305    0.00001031   -0.19483655
     atom    5 type  1   force =     0.00077526    0.00110551   -0.02896225
     atom    6 type  1   force =    -0.00073694   -0.00110923   -0.02902151
     atom    7 type  1   force =     0.00070407   -0.00050322   -0.02692780
     atom    8 type  1   force =    -0.00064780    0.00046799   -0.02729208
     atom    9 type  1   force =     0.00005197    0.00007744   -0.00148674
     atom   10 type  1   force =     0.00033582    0.00047383    0.00785218
     atom   11 type  1   force =    -0.00026847   -0.00048778    0.00770298
     atom   12 type  1   force =    -0.00039422    0.00013017    0.00668438
     atom   13 type  1   force =    -0.00833285   -0.01221834    0.01731083
     atom   14 type  1   force =     0.00911358    0.01132616    0.01599109
     atom   15 type  1   force =     0.00967126   -0.00707981    0.04119046
     atom   16 type  1   force =    -0.01101736    0.00813573    0.03340256
     atom   17 type  1   force =    -0.00979561    0.00404308    0.11951657
     atom   18 type  1   force =    -0.00754255   -0.00761983    0.20187218
     atom   19 type  1   force =     0.00907721    0.00873304    0.18530800
     atom   20 type  1   force =     0.00601548   -0.00069536    0.26341596
     atom   21 type  2   force =     1.39204351   -0.68501555   -1.35549468
     atom   22 type  3   force =    -0.00254151   -0.02109347    0.09091329
     atom   23 type  3   force =    -0.08725840    0.05499575   -0.01370439
     atom   24 type  2   force =     1.31154288   -1.05147849    0.78506764
     atom   25 type  3   force =    -0.08144525   -0.04083882   -0.02931751
     atom   26 type  3   force =     0.00488405    0.10156142   -0.03160623
     The ionic contribution  to forces
     atom    1 type  1   force =    -0.00025049    0.00006410 -321.56914354
     atom    2 type  1   force =    -0.00017239   -0.00021185 -321.57121426
     atom    3 type  1   force =     0.00026502    0.00017044 -321.57131462
     atom    4 type  1   force =     0.00016000   -0.00001772 -321.57130626
     atom    5 type  1   force =    -0.00803267   -0.01139622 -168.99836707
     atom    6 type  1   force =     0.00795493    0.01142730 -168.99566734
     atom    7 type  1   force =    -0.00780325    0.00564155 -169.02778457
     atom    8 type  1   force =     0.00789327   -0.00568334 -169.01979058
     atom    9 type  1   force =    -0.03308345    0.00351534  -13.74036327
     atom   10 type  1   force =    -0.03713368   -0.03727605  -14.37171968
     atom   11 type  1   force =     0.03608480    0.03385283  -14.36764280
     atom   12 type  1   force =     0.03242804   -0.00130402  -14.25065624
     atom   13 type  1   force =     0.97799660    1.43531183  143.43848406
     atom   14 type  1   force =    -1.05140825   -1.38093984  143.56585386
     atom   15 type  1   force =     0.56511750   -0.37158041  140.81616704
     atom   16 type  1   force =    -0.49185478    0.31702644  141.37039522
     atom   17 type  1   force =    -1.08186227    0.83099161  292.70907707
     atom   18 type  1   force =     0.09364103   -1.27864387  292.15161571
     atom   19 type  1   force =     1.13411673    0.35057906  292.91879908
     atom   20 type  1   force =    -0.34030569    0.09008144  298.46151099
     atom   21 type  2   force =    -2.37483130    2.15778206   98.30809716
     atom   22 type  3   force =     0.06762435    0.88600273   16.15592860
     atom   23 type  3   force =     2.40777664   -1.56921854   16.17734866
     atom   24 type  2   force =    -2.10014738    0.82187560  107.28959542
     atom   25 type  3   force =     2.21664013    0.95012632   17.77009031
     atom   26 type  3   force =    -0.02081342   -3.23817677   17.92200705
     The local contribution  to forces
     atom    1 type  1   force =     0.00022690   -0.00003516  321.77368263
     atom    2 type  1   force =     0.00018758    0.00021265  321.77512866
     atom    3 type  1   force =    -0.00025109   -0.00019738  321.77521114
     atom    4 type  1   force =    -0.00014857    0.00000804  321.77686980
     atom    5 type  1   force =     0.00730995    0.01031551  169.03203494
     atom    6 type  1   force =    -0.00723943   -0.01037335  169.02940679
     atom    7 type  1   force =     0.00710775   -0.00516218  169.05840422
     atom    8 type  1   force =    -0.00726623    0.00524915  169.05089406
     atom    9 type  1   force =     0.03300177   -0.00359145   13.73890311
     atom   10 type  1   force =     0.03666355    0.03675742   14.35896640
     atom   11 type  1   force =    -0.03577603   -0.03324951   14.35513304
     atom   12 type  1   force =    -0.03201620    0.00122847   14.23982521
     atom   13 type  1   force =    -0.96990027   -1.42337953 -143.45765220
     atom   14 type  1   force =     1.04245875    1.36991478 -143.58374865
     atom   15 type  1   force =    -0.57416586    0.37818835 -140.85935496
     atom   16 type  1   force =     0.50225474   -0.32476782 -141.40561961
     atom   17 type  1   force =     1.09216977   -0.83544376 -292.83463167
     atom   18 type  1   force =    -0.08619371    1.28664901 -292.36033378
     atom   19 type  1   force =    -1.14347123   -0.35924612 -293.11080308
     atom   20 type  1   force =     0.33453638   -0.08963757 -298.73857413
     atom   21 type  2   force =     0.99610972   -1.47948159  -96.96532387
     atom   22 type  3   force =    -0.06506357   -0.86491965  -16.24687994
     atom   23 type  3   force =    -2.32056370    1.51416658  -16.16363537
     atom   24 type  2   force =     0.80120667    0.21933746 -108.06730436
     atom   25 type  3   force =    -2.13515872   -0.90928458  -17.74080659
     atom   26 type  3   force =     0.01595952    3.13663822  -17.89033835
     The core correction contribution to forces
     atom    1 type  1   force =     0.00002560   -0.00001808   -0.00878071
     atom    2 type  1   force =    -0.00001721   -0.00000206   -0.00867845
     atom    3 type  1   force =    -0.00000153    0.00001818   -0.00868876
     atom    4 type  1   force =    -0.00000325   -0.00000549   -0.00880410
     atom    5 type  1   force =    -0.00003326   -0.00004143   -0.00157974
     atom    6 type  1   force =     0.00003269    0.00003967   -0.00158416
     atom    7 type  1   force =    -0.00000868    0.00000206   -0.00150203
     atom    8 type  1   force =     0.00002277   -0.00001992   -0.00154700
     atom    9 type  1   force =    -0.00000721   -0.00000833    0.00000672
     atom   10 type  1   force =     0.00000814    0.00000089   -0.00035007
     atom   11 type  1   force =    -0.00000175   -0.00000369   -0.00035412
     atom   12 type  1   force =     0.00001043    0.00000061   -0.00015512
     atom   13 type  1   force =     0.00015686    0.00024267    0.00164640
     atom   14 type  1   force =    -0.00016922   -0.00022265    0.00161603
     atom   15 type  1   force =    -0.00058628    0.00041583    0.00187713
     atom   16 type  1   force =     0.00065097   -0.00044940    0.00168429
     atom   17 type  1   force =    -0.00051444    0.00037771    0.00589683
     atom   18 type  1   force =     0.00006980   -0.00035701    0.00662943
     atom   19 type  1   force =     0.00036023   -0.00004711    0.00651335
     atom   20 type  1   force =    -0.00024670    0.00027738    0.01351251
     atom   21 type  2   force =    -0.01332776    0.00668126    0.01266072
     atom   22 type  3   force =     0.00000000    0.00000000    0.00000000
     atom   23 type  3   force =     0.00000000    0.00000000    0.00000000
     atom   24 type  2   force =    -0.01260441    0.01029663   -0.00730412
     atom   25 type  3   force =     0.00000000    0.00000000    0.00000000
     atom   26 type  3   force =     0.00000000    0.00000000    0.00000000
     The Hubbard contrib.    to forces
     atom    1 type  1   force =     0.00000000    0.00000000   -0.00000000
     atom    2 type  1   force =     0.00000000    0.00000000   -0.00000000
     atom    3 type  1   force =    -0.00000000   -0.00000000   -0.00000000
     atom    4 type  1   force =     0.00000000   -0.00000000   -0.00000000
     atom    5 type  1   force =     0.00000000    0.00000000    0.00000000
     atom    6 type  1   force =    -0.00000000   -0.00000000    0.00000000
     atom    7 type  1   force =     0.00000000   -0.00000000    0.00000000
     atom    8 type  1   force =    -0.00000000    0.00000000    0.00000000
     atom    9 type  1   force =    -0.00000000    0.00000000   -0.00000000
     atom   10 type  1   force =     0.00000000    0.00000000    0.00000000
     atom   11 type  1   force =    -0.00000000   -0.00000000    0.00000000
     atom   12 type  1   force =    -0.00000000   -0.00000000    0.00000000
     atom   13 type  1   force =    -0.00000000   -0.00000000   -0.00000000
     atom   14 type  1   force =     0.00000000    0.00000000   -0.00000000
     atom   15 type  1   force =     0.00000000   -0.00000000   -0.00000000
     atom   16 type  1   force =    -0.00000000    0.00000000   -0.00000000
     atom   17 type  1   force =    -0.00000000    0.00000000    0.00000000
     atom   18 type  1   force =     0.00000000    0.00000000    0.00000000
     atom   19 type  1   force =     0.00000000   -0.00000000    0.00000000
     atom   20 type  1   force =    -0.00000000    0.00000000    0.00000000
     atom   21 type  2   force =     0.00000000    0.00000000   -0.00000000
     atom   22 type  3   force =    -0.00000000    0.00000000   -0.00000000
     atom   23 type  3   force =     0.00000000   -0.00000000    0.00000000
     atom   24 type  2   force =     0.00000000   -0.00000000    0.00000000
     atom   25 type  3   force =     0.00000000    0.00000000    0.00000000
     atom   26 type  3   force =    -0.00000000   -0.00000000    0.00000000
     The SCF correction term to forces
     atom    1 type  1   force =     0.00000000    0.00000000    0.00000000
     atom    2 type  1   force =     0.00000000    0.00000000    0.00000000
     atom    3 type  1   force =     0.00000000    0.00000000    0.00000000
     atom    4 type  1   force =     0.00000000    0.00000000    0.00000000
     atom    5 type  1   force =     0.00000000    0.00000000    0.00000000
     atom    6 type  1   force =     0.00000000    0.00000000    0.00000000
     atom    7 type  1   force =     0.00000000    0.00000000    0.00000000
     atom    8 type  1   force =     0.00000000    0.00000000    0.00000000
     atom    9 type  1   force =     0.00000000    0.00000000    0.00000000
     atom   10 type  1   force =     0.00000000    0.00000000    0.00000000
     atom   11 type  1   force =     0.00000000    0.00000000    0.00000000
     atom   12 type  1   force =     0.00000000    0.00000000    0.00000000
     atom   13 type  1   force =     0.00001469    0.00002269    0.00016625
     atom   14 type  1   force =    -0.00001425   -0.00002273    0.00016649
     atom   15 type  1   force =     0.00001343   -0.00001259    0.00015886
     atom   16 type  1   force =    -0.00001385    0.00001277    0.00015903
     atom   17 type  1   force =    -0.00000208    0.00000035    0.00011806
     atom   18 type  1   force =    -0.00000080   -0.00000138    0.00014222
     atom   19 type  1   force =     0.00000206    0.00000030    0.00014084
     atom   20 type  1   force =     0.00000035    0.00000091    0.00009054
     atom   21 type  2   force =     0.00000084   -0.00000394    0.00001169
     atom   22 type  3   force =     0.00000014   -0.00000084    0.00000286
     atom   23 type  3   force =    -0.00000086    0.00000042    0.00000086
     atom   24 type  2   force =    -0.00000093    0.00000241    0.00000254
     atom   25 type  3   force =    -0.00000051   -0.00000009    0.00000069
     atom   26 type  3   force =    -0.00000010    0.00000114    0.00000066

     Total force =     0.000273     Total SCF correction =     0.000413
     SCF correction compared to forces is large: reduce conv_thr to get better values


     entering subroutine stress ...


     negative rho (up, down):  0.151E-04 0.645E-03
          total   stress  (Ry/bohr**3)                   (kbar)     P=  -11.62
  -0.00009335  -0.00004365   0.00000016        -13.73     -6.42      0.02
  -0.00004365  -0.00011544  -0.00000016         -6.42    -16.98     -0.02
   0.00000016  -0.00000016  -0.00002824          0.02     -0.02     -4.15

     kinetic stress (kbar)  40947.84      3.75    -31.15
                                3.75  40946.04     43.51
                              -31.15     43.51  40780.40

     local   stress (kbar)**********    630.85   -124.86
                              630.85**********     10.91
                             -124.86     10.911240776.06

     nonloc. stress (kbar) -30852.58     12.77     -1.78
                               12.77 -30843.76      2.38
                               -1.78      2.38 -30694.51

     hartree stress (kbar) 620172.21   -227.25     33.26
                             -227.25 619670.73     21.78
                               33.26     21.78-577261.22

     exc-cor stress (kbar)  -1486.74     -0.44      0.44
                               -0.44  -1487.80     -0.49
                                0.44     -0.49  -1496.24

     corecor stress (kbar)  -8213.84     -0.22      0.06
                               -0.22  -8213.98     -0.09
                                0.06     -0.09  -8212.30

     ewald   stress (kbar) 555731.60   -425.87    124.06
                             -425.87 554997.83    -78.01
                              124.06    -78.01-663896.34

     hubbard stress (kbar)     -0.00      0.00      0.00
                                0.00     -0.00     -0.00
                                0.00     -0.00     -0.00

     london  stress (kbar)      0.00      0.00      0.00
                                0.00      0.00      0.00
                                0.00      0.00      0.00

     dft-nl  stress (kbar)      0.00      0.00      0.00
                                0.00      0.00      0.00
                                0.00      0.00      0.00



     Writing output data file Fe_110_2x2_H2O_top_5ML.save
 
     init_run     :    157.40s CPU    170.60s WALL (       1 calls)
     electrons    :   1803.83s CPU   1960.48s WALL (       1 calls)
     forces       :     65.26s CPU     66.29s WALL (       1 calls)
     stress       :    316.57s CPU    325.06s WALL (       1 calls)

     Called by init_run:
     wfcinit      :     22.39s CPU     33.72s WALL (       1 calls)
     potinit      :      2.22s CPU      2.27s WALL (       1 calls)

     Called by electrons:
     c_bands      :    920.99s CPU    965.18s WALL (      29 calls)
     sum_band     :    465.41s CPU    485.66s WALL (      29 calls)
     v_of_rho     :     18.61s CPU     18.98s WALL (      30 calls)
     v_h          :      0.90s CPU      0.91s WALL (      30 calls)
     v_xc         :     18.92s CPU     19.27s WALL (      32 calls)
     newd         :    269.04s CPU    269.80s WALL (      30 calls)
     mix_rho      :    103.56s CPU    103.91s WALL (      29 calls)

     Called by c_bands:
     init_us_2    :      6.03s CPU      6.05s WALL (     360 calls)
     cegterg      :    834.58s CPU    852.92s WALL (     145 calls)

     Called by sum_band:
     sum_band:bec :      0.33s CPU      0.31s WALL (     145 calls)
     addusdens    :    308.82s CPU    309.47s WALL (      29 calls)

     Called by *egterg:
     h_psi        :    614.65s CPU    616.04s WALL (     536 calls)
     s_psi        :     49.35s CPU     49.42s WALL (     591 calls)
     g_psi        :      1.18s CPU      1.17s WALL (     386 calls)
     cdiaghg      :     61.06s CPU     61.37s WALL (     531 calls)
     cegterg:over :     48.30s CPU     48.43s WALL (     386 calls)
     cegterg:upda :     35.69s CPU     35.89s WALL (     386 calls)
     cegterg:last :     22.28s CPU     22.35s WALL (     145 calls)
     cdiaghg:chol :      2.92s CPU      2.97s WALL (     531 calls)
     cdiaghg:inve :      1.08s CPU      1.03s WALL (     531 calls)
     cdiaghg:para :     11.97s CPU     12.07s WALL (    1062 calls)

     Called by h_psi:
     h_psi:vloc   :    402.16s CPU    403.38s WALL (     536 calls)
     h_psi:vnl    :     88.34s CPU     88.40s WALL (     536 calls)
     add_vuspsi   :     42.52s CPU     42.55s WALL (     536 calls)
     vhpsi        :    122.04s CPU    122.14s WALL (     536 calls)

     General routines
     calbec       :    143.90s CPU    144.06s WALL (    2692 calls)
     fft          :     20.55s CPU     20.86s WALL (     964 calls)
     ffts         :     49.18s CPU     49.29s WALL (   11934 calls)
     fftw         :    412.67s CPU    413.91s WALL (   77569 calls)
     interpolate  :      3.26s CPU      3.29s WALL (     118 calls)
     davcio       :     10.59s CPU     74.28s WALL (    1055 calls)
 
     Parallel routines
     fft_scatter  :    206.23s CPU    207.44s WALL (   90467 calls)
     ALLTOALL     :     10.40s CPU     10.17s WALL (   77461 calls)
     Hubbard U routines
     new_ns       :     16.65s CPU     30.31s WALL (      29 calls)
     vhpsi        :    122.04s CPU    122.14s WALL (     536 calls)
     force_hub    :     18.94s CPU     19.70s WALL (       1 calls)
     stres_hub    :    174.63s CPU    182.90s WALL (       1 calls)
 
     PAW routines
     PAW_pot      :      7.54s CPU      7.57s WALL (      30 calls)
     PAW_ddot     :      6.39s CPU      6.38s WALL (    1021 calls)
 
     PWSCF        : 39m16.35s CPU    42m48.36s WALL

 
   This run was terminated on:  11:38:57  14Dec2015            

=------------------------------------------------------------------------------=
   JOB DONE.
=------------------------------------------------------------------------------=
Application 19409717 resources: utime ~119032s, stime ~3586s, Rss ~557940, inblocks ~5191419240, outblocks ~831301128
