
     Program PWSCF v.5.0.2 (svn rev. 9656) starts on 14Dec2015 at 10:56: 1 

     This program is part of the open-source Quantum ESPRESSO suite
     for quantum simulation of materials; please cite
         "P. Giannozzi et al., J. Phys.:Condens. Matter 21 395502 (2009);
          URL http://www.quantum-espresso.org", 
     in publications or presentations arising from this work. More details at
     http://www.quantum-espresso.org/quote.php

     Parallel version (MPI & OpenMP), running on      96 processor cores
     Number of MPI processes:                96
     Threads/MPI process:                     1
     K-points division:     npool     =       4
     R & G space division:  proc/nbgrp/npool/nimage =      24
     wavefunctions fft division:  fft/group =       2

     Current dimensions of program PWSCF are:
     Max number of different atomic species (ntypx) = 10
     Max number of k-points (npk) =  40000
     Max angular momentum in pseudopotentials (lmaxx) =  3
     Reading input from Fe_100_2x2_H2O_top_5ML_scf.in
Warning: card  &IONS ignored
Warning: card  / ignored
Warning: card  &CELL ignored
Warning: card    PRESS=0.0 ignored
Warning: card    PRESS_CONV_THR=0.1 ignored
Warning: card  / ignored

     IMPORTANT: XC functional enforced from input :
     Exchange-correlation      = PBE ( 1 4 3 4 0)
     EXX-fraction              =        0.00
     Any further DFT definition will be discarded
     Please, verify this is what you really want

               file Fe.pbe-spn-kjpaw_psl.0.2.1.UPF: wavefunction(s)  3D renormalized
               file O.pbe-n-kjpaw_psl.0.1.UPF: wavefunction(s)  2P renormalized
               file H.pbe-kjpaw_psl.0.1.upf: wavefunction(s)  1S renormalized

     Subspace diagonalization in iterative solution of the eigenvalue problem:
     scalapack distributed-memory algorithm (size of sub-group:  3*  3 procs)


   Task Groups are in USE
   groups and procs/group :     2   12
 
     Parallelization info
     --------------------
     sticks:   dense  smooth     PW     G-vecs:    dense   smooth      PW
     Min         304     144     39                62058    20304    2879
     Max         305     145     40                62067    20339    2890
     Sum        7305    3457    949              1489451   487579   69203
 


     bravais-lattice index     =            0
     lattice parameter (alat)  =       1.8897  a.u.
     unit-cell volume          =    3898.2644 (a.u.)^3
     number of atoms/cell      =           26
     number of atomic types    =            3
     number of electrons       =       336.00
     number of Kohn-Sham states=          202
     kinetic-energy cutoff     =      95.0000  Ry
     charge density cutoff     =     800.0000  Ry
     convergence threshold     =      1.0E-08
     mixing beta               =       0.5000
     number of iterations used =            8  local-TF  mixing
     Exchange-correlation      = PBE ( 1 4 3 4 0)
     EXX-fraction              =        0.00

     celldm(1)=   1.889727  celldm(2)=   0.000000  celldm(3)=   0.000000
     celldm(4)=   0.000000  celldm(5)=   0.000000  celldm(6)=   0.000000

     crystal axes: (cart. coord. in units of alat)
               a(1) = (   5.665012   0.000000   0.000000 )  
               a(2) = (   0.000000   5.665012   0.000000 )  
               a(3) = (   0.000000   0.000000  18.000000 )  

     reciprocal axes: (cart. coord. in units 2 pi/alat)
               b(1) = (  0.176522 -0.000000  0.000000 )  
               b(2) = (  0.000000  0.176522  0.000000 )  
               b(3) = (  0.000000  0.000000  0.055556 )  


     PseudoPot. # 1 for Fe read from file:
     /work/e05/e05/ablar/QE_PSEUDO/Fe.pbe-spn-kjpaw_psl.0.2.1.UPF
     MD5 check sum: a0a08122d52b112de96d1da1d7dd020f
     Pseudo is Projector augmented-wave + core cor, Zval = 16.0
     Generated using "atomic" code by A. Dal Corso  v.5.0.2 svn rev. 9415
     Shape of augmentation charge: PSQ
     Using radial grid of 1191 points,  6 beta functions with: 
                l(1) =   0
                l(2) =   0
                l(3) =   1
                l(4) =   1
                l(5) =   2
                l(6) =   2
     Q(r) pseudized with 0 coefficients 


     PseudoPot. # 2 for  O read from file:
     /work/e05/e05/ablar/QE_PSEUDO/O.pbe-n-kjpaw_psl.0.1.UPF
     MD5 check sum: 1d826bf4880e2aee2c3af49d0719521d
     Pseudo is Projector augmented-wave + core cor, Zval =  6.0
     Generated using "atomic" code by A. Dal Corso  v.5.0.2 svn rev. 9415
     Shape of augmentation charge: BESSEL
     Using radial grid of 1095 points,  4 beta functions with: 
                l(1) =   0
                l(2) =   0
                l(3) =   1
                l(4) =   1
     Q(r) pseudized with 0 coefficients 


     PseudoPot. # 3 for  H read from file:
     /work/e05/e05/ablar/QE_PSEUDO/H.pbe-kjpaw_psl.0.1.upf
     MD5 check sum: 94e484f906d9e9773b2f6e52662335b2
     Pseudo is Projector augmented-wave, Zval =  1.0
     Generated using "atomic" code by A. Dal Corso  v.5.0.99 svn rev. 10869
     Shape of augmentation charge: PSQ
     Using radial grid of  929 points,  2 beta functions with: 
                l(1) =   0
                l(2) =   0
     Q(r) pseudized with 0 coefficients 


     atomic species   valence    mass     pseudopotential
        Fe            16.00    55.85000     Fe( 1.00)
        O              6.00    16.00000      O( 1.00)
        H              1.00     1.00000      H( 1.00)

     Starting magnetic structure 
     atomic species   magnetization
        Fe           0.600
        O            0.000
        H            0.000


     Simplified LDA+U calculation (l_max = 2) with parameters (eV):
     atomic species    L          U    alpha       J0     beta
        Fe             2     0.0000   0.0000   0.0000   0.0000



     No symmetry found


                                    s                        frac. trans.

      isym =  1     identity                                     

 cryst.   s( 1) = (     1          0          0      )
                  (     0          1          0      )
                  (     0          0          1      )

 cart.    s( 1) = (  1.0000000  0.0000000  0.0000000 )
                  (  0.0000000  1.0000000  0.0000000 )
                  (  0.0000000  0.0000000  1.0000000 )


     point group C_1 (1)    
     there are  1 classes
     the character table:

       E    
A      1.00

     the symmetry operations in each class:
     E        1

   Cartesian axes

     site n.     atom                  positions (alat units)
         1           Fe  tau(   1) = (   0.0000000   0.0000000  -2.8325049  )
         2           Fe  tau(   2) = (   0.0000000   2.8325049  -2.8325049  )
         3           Fe  tau(   3) = (   2.8325049   0.0000000  -2.8325049  )
         4           Fe  tau(   4) = (   2.8325049   2.8325049  -2.8325049  )
         5           Fe  tau(   5) = (   1.4162524   1.4162524  -1.4162524  )
         6           Fe  tau(   6) = (   1.4162524  -1.4162524  -1.4162524  )
         7           Fe  tau(   7) = (  -1.4162524   1.4162524  -1.4162524  )
         8           Fe  tau(   8) = (  -1.4162524  -1.4162524  -1.4162524  )
         9           Fe  tau(   9) = (   0.0000000   0.0000000   0.0000000  )
        10           Fe  tau(  10) = (   0.0000000   2.8325049   0.0000000  )
        11           Fe  tau(  11) = (   2.8325049   0.0000000   0.0000000  )
        12           Fe  tau(  12) = (   2.8325049   2.8325049   0.0000000  )
        13           Fe  tau(  13) = (   1.4280395   1.4300927   1.4316969  )
        14           Fe  tau(  14) = (   1.4274794  -1.4289515   1.4324648  )
        15           Fe  tau(  15) = (  -1.4271829   1.4237558   1.4287965  )
        16           Fe  tau(  16) = (  -1.4288357  -1.4258811   1.4332682  )
        17           Fe  tau(  17) = (   0.0074442   0.0033211   2.7809186  )
        18           Fe  tau(  18) = (  -0.0190763   2.8313906   2.7985231  )
        19           Fe  tau(  19) = (   2.8342433   0.0049198   2.8019357  )
        20           Fe  tau(  20) = (   2.8360391   2.8240929   2.9665890  )
        21           O   tau(  21) = (  -1.9582235  -0.3040755   5.8185162  )
        22           H   tau(  22) = (  -2.4071128   0.5567646   5.9236510  )
        23           H   tau(  23) = (  -1.3981393  -0.1757164   5.0145921  )
        24           O   tau(  24) = (   2.6368994   2.9149640   5.1896783  )
        25           H   tau(  25) = (   2.9580297   3.8122961   5.4990589  )
        26           H   tau(  26) = (   1.6701295   2.9314923   5.3205064  )

   Crystallographic axes

     site n.     atom                  positions (cryst. coord.)
         1           Fe  tau(   1) = (  0.0000000  0.0000000 -0.1573614  )
         2           Fe  tau(   2) = ( -0.0000000  0.4999998 -0.1573614  )
         3           Fe  tau(   3) = (  0.4999998  0.0000000 -0.1573614  )
         4           Fe  tau(   4) = (  0.4999998  0.4999998 -0.1573614  )
         5           Fe  tau(   5) = (  0.2499999  0.2499999 -0.0786807  )
         6           Fe  tau(   6) = (  0.2499999 -0.2499999 -0.0786807  )
         7           Fe  tau(   7) = ( -0.2499999  0.2499999 -0.0786807  )
         8           Fe  tau(   8) = ( -0.2499999 -0.2499999 -0.0786807  )
         9           Fe  tau(   9) = (  0.0000000  0.0000000  0.0000000  )
        10           Fe  tau(  10) = ( -0.0000000  0.4999998  0.0000000  )
        11           Fe  tau(  11) = (  0.4999998  0.0000000  0.0000000  )
        12           Fe  tau(  12) = (  0.4999998  0.4999998  0.0000000  )
        13           Fe  tau(  13) = (  0.2520806  0.2524430  0.0795387  )
        14           Fe  tau(  14) = (  0.2519817 -0.2522416  0.0795814  )
        15           Fe  tau(  15) = ( -0.2519294  0.2513244  0.0793776  )
        16           Fe  tau(  16) = ( -0.2522211 -0.2516996  0.0796260  )
        17           Fe  tau(  17) = (  0.0013141  0.0005862  0.1544955  )
        18           Fe  tau(  18) = ( -0.0033674  0.4998031  0.1554735  )
        19           Fe  tau(  19) = (  0.5003067  0.0008685  0.1556631  )
        20           Fe  tau(  20) = (  0.5006237  0.4985149  0.1648105  )
        21           O   tau(  21) = ( -0.3456698 -0.0536760  0.3232509  )
        22           H   tau(  22) = ( -0.4249087  0.0982813  0.3290917  )
        23           H   tau(  23) = ( -0.2468025 -0.0310178  0.2785885  )
        24           O   tau(  24) = (  0.4654711  0.5145557  0.2883155  )
        25           H   tau(  25) = (  0.5221577  0.6729546  0.3055033  )
        26           H   tau(  26) = (  0.2948148  0.5174733  0.2955837  )

     number of k points=    20  Marzari-Vanderbilt smearing, width (Ry)=  0.0400
                       cart. coord. in units 2pi/alat
        k(    1) = (   0.0000000   0.0000000   0.0000000), wk =   0.0625000
        k(    2) = (   0.0000000   0.0441305   0.0000000), wk =   0.1250000
        k(    3) = (   0.0000000  -0.0882611   0.0000000), wk =   0.0625000
        k(    4) = (   0.0441305   0.0441305   0.0000000), wk =   0.1250000
        k(    5) = (   0.0441305  -0.0882611   0.0000000), wk =   0.1250000
        k(    6) = (  -0.0882611  -0.0882611   0.0000000), wk =   0.0625000
        k(    7) = (   0.0441305  -0.0000000   0.0000000), wk =   0.1250000
        k(    8) = (  -0.0882611   0.0000000   0.0000000), wk =   0.0625000
        k(    9) = (  -0.0441305   0.0441305   0.0000000), wk =   0.1250000
        k(   10) = (  -0.0882611   0.0441305   0.0000000), wk =   0.1250000
        k(   11) = (   0.0000000   0.0000000   0.0000000), wk =   0.0625000
        k(   12) = (   0.0000000   0.0441305   0.0000000), wk =   0.1250000
        k(   13) = (   0.0000000  -0.0882611   0.0000000), wk =   0.0625000
        k(   14) = (   0.0441305   0.0441305   0.0000000), wk =   0.1250000
        k(   15) = (   0.0441305  -0.0882611   0.0000000), wk =   0.1250000
        k(   16) = (  -0.0882611  -0.0882611   0.0000000), wk =   0.0625000
        k(   17) = (   0.0441305  -0.0000000   0.0000000), wk =   0.1250000
        k(   18) = (  -0.0882611   0.0000000   0.0000000), wk =   0.0625000
        k(   19) = (  -0.0441305   0.0441305   0.0000000), wk =   0.1250000
        k(   20) = (  -0.0882611   0.0441305   0.0000000), wk =   0.1250000

                       cryst. coord.
        k(    1) = (   0.0000000   0.0000000   0.0000000), wk =   0.0625000
        k(    2) = (   0.0000000   0.2500000   0.0000000), wk =   0.1250000
        k(    3) = (   0.0000000  -0.5000000   0.0000000), wk =   0.0625000
        k(    4) = (   0.2500000   0.2500000   0.0000000), wk =   0.1250000
        k(    5) = (   0.2500000  -0.5000000   0.0000000), wk =   0.1250000
        k(    6) = (  -0.5000000  -0.5000000   0.0000000), wk =   0.0625000
        k(    7) = (   0.2500000   0.0000000   0.0000000), wk =   0.1250000
        k(    8) = (  -0.5000000  -0.0000000   0.0000000), wk =   0.0625000
        k(    9) = (  -0.2500000   0.2500000   0.0000000), wk =   0.1250000
        k(   10) = (  -0.5000000   0.2500000   0.0000000), wk =   0.1250000
        k(   11) = (   0.0000000   0.0000000   0.0000000), wk =   0.0625000
        k(   12) = (   0.0000000   0.2500000   0.0000000), wk =   0.1250000
        k(   13) = (   0.0000000  -0.5000000   0.0000000), wk =   0.0625000
        k(   14) = (   0.2500000   0.2500000   0.0000000), wk =   0.1250000
        k(   15) = (   0.2500000  -0.5000000   0.0000000), wk =   0.1250000
        k(   16) = (  -0.5000000  -0.5000000   0.0000000), wk =   0.0625000
        k(   17) = (   0.2500000   0.0000000   0.0000000), wk =   0.1250000
        k(   18) = (  -0.5000000  -0.0000000   0.0000000), wk =   0.0625000
        k(   19) = (  -0.2500000   0.2500000   0.0000000), wk =   0.1250000
        k(   20) = (  -0.5000000   0.2500000   0.0000000), wk =   0.1250000

     Dense  grid:  1489451 G-vectors     FFT dimensions: ( 100, 100, 320)

     Smooth grid:   487579 G-vectors     FFT dimensions: (  72,  72, 216)

     Largest allocated arrays     est. size (Mb)     dimensions
        Kohn-Sham Wavefunctions         7.95 Mb     (   2579,  202)
        Atomic wavefunctions           10.70 Mb     (   2579,  272)
        NL pseudopotentials            15.11 Mb     (   2579,  384)
        Each V/rho on FFT grid          4.27 Mb     ( 140000,   2)
        Each G-vector array             0.47 Mb     (  62061)
        G-vector shells                 0.20 Mb     (  25708)
     Largest temporary arrays     est. size (Mb)     dimensions
        Auxiliary wavefunctions        31.80 Mb     (   2579,  808)
        Each subspace H/S matrix        1.10 Mb     ( 269, 269)
        Each <psi_i|beta_j> matrix      1.18 Mb     (    384,  202)
        Arrays for rho mixing          17.09 Mb     ( 140000,   8)

     Check: negative/imaginary core charge=   -0.000011    0.000000

     Initial potential from superposition of free atoms

     starting charge  335.99119, renormalised to  336.00000

     negative rho (up, down):  0.876E-05 0.177E-05
 --- in v_hubbard ---
Hubbard energy    0.0000
 -------
     Number of +U iterations with fixed ns =  0
     Starting occupations:
 --- enter write_ns ---
 LDA+U parameters:
U( 1)     =  0.00000000
alpha( 1) =  0.00000000
atom    1   Tr[ns(na)] (up, down, total) =   5.00000  1.00000  6.00000
   spin  1
    eigenvalues: 
  1.000  1.000  1.000  1.000  1.000
    eigenvectors:
  1.000  0.000  0.000  0.000  0.000
  0.000  1.000  0.000  0.000  0.000
  0.000  0.000  1.000  0.000  0.000
  0.000  0.000  0.000  1.000  0.000
  0.000  0.000  0.000  0.000  1.000
    occupations:
  1.000  0.000  0.000  0.000  0.000
  0.000  1.000  0.000  0.000  0.000
  0.000  0.000  1.000  0.000  0.000
  0.000  0.000  0.000  1.000  0.000
  0.000  0.000  0.000  0.000  1.000
   spin  2
    eigenvalues: 
  0.200  0.200  0.200  0.200  0.200
    eigenvectors:
  1.000  0.000  0.000  0.000  0.000
  0.000  1.000  0.000  0.000  0.000
  0.000  0.000  1.000  0.000  0.000
  0.000  0.000  0.000  1.000  0.000
  0.000  0.000  0.000  0.000  1.000
    occupations:
  0.200  0.000  0.000  0.000  0.000
  0.000  0.200  0.000  0.000  0.000
  0.000  0.000  0.200  0.000  0.000
  0.000  0.000  0.000  0.200  0.000
  0.000  0.000  0.000  0.000  0.200
atomic mag. moment =     4.000000
atom    2   Tr[ns(na)] (up, down, total) =   5.00000  1.00000  6.00000
   spin  1
    eigenvalues: 
  1.000  1.000  1.000  1.000  1.000
    eigenvectors:
  1.000  0.000  0.000  0.000  0.000
  0.000  1.000  0.000  0.000  0.000
  0.000  0.000  1.000  0.000  0.000
  0.000  0.000  0.000  1.000  0.000
  0.000  0.000  0.000  0.000  1.000
    occupations:
  1.000  0.000  0.000  0.000  0.000
  0.000  1.000  0.000  0.000  0.000
  0.000  0.000  1.000  0.000  0.000
  0.000  0.000  0.000  1.000  0.000
  0.000  0.000  0.000  0.000  1.000
   spin  2
    eigenvalues: 
  0.200  0.200  0.200  0.200  0.200
    eigenvectors:
  1.000  0.000  0.000  0.000  0.000
  0.000  1.000  0.000  0.000  0.000
  0.000  0.000  1.000  0.000  0.000
  0.000  0.000  0.000  1.000  0.000
  0.000  0.000  0.000  0.000  1.000
    occupations:
  0.200  0.000  0.000  0.000  0.000
  0.000  0.200  0.000  0.000  0.000
  0.000  0.000  0.200  0.000  0.000
  0.000  0.000  0.000  0.200  0.000
  0.000  0.000  0.000  0.000  0.200
atomic mag. moment =     4.000000
atom    3   Tr[ns(na)] (up, down, total) =   5.00000  1.00000  6.00000
   spin  1
    eigenvalues: 
  1.000  1.000  1.000  1.000  1.000
    eigenvectors:
  1.000  0.000  0.000  0.000  0.000
  0.000  1.000  0.000  0.000  0.000
  0.000  0.000  1.000  0.000  0.000
  0.000  0.000  0.000  1.000  0.000
  0.000  0.000  0.000  0.000  1.000
    occupations:
  1.000  0.000  0.000  0.000  0.000
  0.000  1.000  0.000  0.000  0.000
  0.000  0.000  1.000  0.000  0.000
  0.000  0.000  0.000  1.000  0.000
  0.000  0.000  0.000  0.000  1.000
   spin  2
    eigenvalues: 
  0.200  0.200  0.200  0.200  0.200
    eigenvectors:
  1.000  0.000  0.000  0.000  0.000
  0.000  1.000  0.000  0.000  0.000
  0.000  0.000  1.000  0.000  0.000
  0.000  0.000  0.000  1.000  0.000
  0.000  0.000  0.000  0.000  1.000
    occupations:
  0.200  0.000  0.000  0.000  0.000
  0.000  0.200  0.000  0.000  0.000
  0.000  0.000  0.200  0.000  0.000
  0.000  0.000  0.000  0.200  0.000
  0.000  0.000  0.000  0.000  0.200
atomic mag. moment =     4.000000
atom    4   Tr[ns(na)] (up, down, total) =   5.00000  1.00000  6.00000
   spin  1
    eigenvalues: 
  1.000  1.000  1.000  1.000  1.000
    eigenvectors:
  1.000  0.000  0.000  0.000  0.000
  0.000  1.000  0.000  0.000  0.000
  0.000  0.000  1.000  0.000  0.000
  0.000  0.000  0.000  1.000  0.000
  0.000  0.000  0.000  0.000  1.000
    occupations:
  1.000  0.000  0.000  0.000  0.000
  0.000  1.000  0.000  0.000  0.000
  0.000  0.000  1.000  0.000  0.000
  0.000  0.000  0.000  1.000  0.000
  0.000  0.000  0.000  0.000  1.000
   spin  2
    eigenvalues: 
  0.200  0.200  0.200  0.200  0.200
    eigenvectors:
  1.000  0.000  0.000  0.000  0.000
  0.000  1.000  0.000  0.000  0.000
  0.000  0.000  1.000  0.000  0.000
  0.000  0.000  0.000  1.000  0.000
  0.000  0.000  0.000  0.000  1.000
    occupations:
  0.200  0.000  0.000  0.000  0.000
  0.000  0.200  0.000  0.000  0.000
  0.000  0.000  0.200  0.000  0.000
  0.000  0.000  0.000  0.200  0.000
  0.000  0.000  0.000  0.000  0.200
atomic mag. moment =     4.000000
atom    5   Tr[ns(na)] (up, down, total) =   5.00000  1.00000  6.00000
   spin  1
    eigenvalues: 
  1.000  1.000  1.000  1.000  1.000
    eigenvectors:
  1.000  0.000  0.000  0.000  0.000
  0.000  1.000  0.000  0.000  0.000
  0.000  0.000  1.000  0.000  0.000
  0.000  0.000  0.000  1.000  0.000
  0.000  0.000  0.000  0.000  1.000
    occupations:
  1.000  0.000  0.000  0.000  0.000
  0.000  1.000  0.000  0.000  0.000
  0.000  0.000  1.000  0.000  0.000
  0.000  0.000  0.000  1.000  0.000
  0.000  0.000  0.000  0.000  1.000
   spin  2
    eigenvalues: 
  0.200  0.200  0.200  0.200  0.200
    eigenvectors:
  1.000  0.000  0.000  0.000  0.000
  0.000  1.000  0.000  0.000  0.000
  0.000  0.000  1.000  0.000  0.000
  0.000  0.000  0.000  1.000  0.000
  0.000  0.000  0.000  0.000  1.000
    occupations:
  0.200  0.000  0.000  0.000  0.000
  0.000  0.200  0.000  0.000  0.000
  0.000  0.000  0.200  0.000  0.000
  0.000  0.000  0.000  0.200  0.000
  0.000  0.000  0.000  0.000  0.200
atomic mag. moment =     4.000000
atom    6   Tr[ns(na)] (up, down, total) =   5.00000  1.00000  6.00000
   spin  1
    eigenvalues: 
  1.000  1.000  1.000  1.000  1.000
    eigenvectors:
  1.000  0.000  0.000  0.000  0.000
  0.000  1.000  0.000  0.000  0.000
  0.000  0.000  1.000  0.000  0.000
  0.000  0.000  0.000  1.000  0.000
  0.000  0.000  0.000  0.000  1.000
    occupations:
  1.000  0.000  0.000  0.000  0.000
  0.000  1.000  0.000  0.000  0.000
  0.000  0.000  1.000  0.000  0.000
  0.000  0.000  0.000  1.000  0.000
  0.000  0.000  0.000  0.000  1.000
   spin  2
    eigenvalues: 
  0.200  0.200  0.200  0.200  0.200
    eigenvectors:
  1.000  0.000  0.000  0.000  0.000
  0.000  1.000  0.000  0.000  0.000
  0.000  0.000  1.000  0.000  0.000
  0.000  0.000  0.000  1.000  0.000
  0.000  0.000  0.000  0.000  1.000
    occupations:
  0.200  0.000  0.000  0.000  0.000
  0.000  0.200  0.000  0.000  0.000
  0.000  0.000  0.200  0.000  0.000
  0.000  0.000  0.000  0.200  0.000
  0.000  0.000  0.000  0.000  0.200
atomic mag. moment =     4.000000
atom    7   Tr[ns(na)] (up, down, total) =   5.00000  1.00000  6.00000
   spin  1
    eigenvalues: 
  1.000  1.000  1.000  1.000  1.000
    eigenvectors:
  1.000  0.000  0.000  0.000  0.000
  0.000  1.000  0.000  0.000  0.000
  0.000  0.000  1.000  0.000  0.000
  0.000  0.000  0.000  1.000  0.000
  0.000  0.000  0.000  0.000  1.000
    occupations:
  1.000  0.000  0.000  0.000  0.000
  0.000  1.000  0.000  0.000  0.000
  0.000  0.000  1.000  0.000  0.000
  0.000  0.000  0.000  1.000  0.000
  0.000  0.000  0.000  0.000  1.000
   spin  2
    eigenvalues: 
  0.200  0.200  0.200  0.200  0.200
    eigenvectors:
  1.000  0.000  0.000  0.000  0.000
  0.000  1.000  0.000  0.000  0.000
  0.000  0.000  1.000  0.000  0.000
  0.000  0.000  0.000  1.000  0.000
  0.000  0.000  0.000  0.000  1.000
    occupations:
  0.200  0.000  0.000  0.000  0.000
  0.000  0.200  0.000  0.000  0.000
  0.000  0.000  0.200  0.000  0.000
  0.000  0.000  0.000  0.200  0.000
  0.000  0.000  0.000  0.000  0.200
atomic mag. moment =     4.000000
atom    8   Tr[ns(na)] (up, down, total) =   5.00000  1.00000  6.00000
   spin  1
    eigenvalues: 
  1.000  1.000  1.000  1.000  1.000
    eigenvectors:
  1.000  0.000  0.000  0.000  0.000
  0.000  1.000  0.000  0.000  0.000
  0.000  0.000  1.000  0.000  0.000
  0.000  0.000  0.000  1.000  0.000
  0.000  0.000  0.000  0.000  1.000
    occupations:
  1.000  0.000  0.000  0.000  0.000
  0.000  1.000  0.000  0.000  0.000
  0.000  0.000  1.000  0.000  0.000
  0.000  0.000  0.000  1.000  0.000
  0.000  0.000  0.000  0.000  1.000
   spin  2
    eigenvalues: 
  0.200  0.200  0.200  0.200  0.200
    eigenvectors:
  1.000  0.000  0.000  0.000  0.000
  0.000  1.000  0.000  0.000  0.000
  0.000  0.000  1.000  0.000  0.000
  0.000  0.000  0.000  1.000  0.000
  0.000  0.000  0.000  0.000  1.000
    occupations:
  0.200  0.000  0.000  0.000  0.000
  0.000  0.200  0.000  0.000  0.000
  0.000  0.000  0.200  0.000  0.000
  0.000  0.000  0.000  0.200  0.000
  0.000  0.000  0.000  0.000  0.200
atomic mag. moment =     4.000000
atom    9   Tr[ns(na)] (up, down, total) =   5.00000  1.00000  6.00000
   spin  1
    eigenvalues: 
  1.000  1.000  1.000  1.000  1.000
    eigenvectors:
  1.000  0.000  0.000  0.000  0.000
  0.000  1.000  0.000  0.000  0.000
  0.000  0.000  1.000  0.000  0.000
  0.000  0.000  0.000  1.000  0.000
  0.000  0.000  0.000  0.000  1.000
    occupations:
  1.000  0.000  0.000  0.000  0.000
  0.000  1.000  0.000  0.000  0.000
  0.000  0.000  1.000  0.000  0.000
  0.000  0.000  0.000  1.000  0.000
  0.000  0.000  0.000  0.000  1.000
   spin  2
    eigenvalues: 
  0.200  0.200  0.200  0.200  0.200
    eigenvectors:
  1.000  0.000  0.000  0.000  0.000
  0.000  1.000  0.000  0.000  0.000
  0.000  0.000  1.000  0.000  0.000
  0.000  0.000  0.000  1.000  0.000
  0.000  0.000  0.000  0.000  1.000
    occupations:
  0.200  0.000  0.000  0.000  0.000
  0.000  0.200  0.000  0.000  0.000
  0.000  0.000  0.200  0.000  0.000
  0.000  0.000  0.000  0.200  0.000
  0.000  0.000  0.000  0.000  0.200
atomic mag. moment =     4.000000
atom   10   Tr[ns(na)] (up, down, total) =   5.00000  1.00000  6.00000
   spin  1
    eigenvalues: 
  1.000  1.000  1.000  1.000  1.000
    eigenvectors:
  1.000  0.000  0.000  0.000  0.000
  0.000  1.000  0.000  0.000  0.000
  0.000  0.000  1.000  0.000  0.000
  0.000  0.000  0.000  1.000  0.000
  0.000  0.000  0.000  0.000  1.000
    occupations:
  1.000  0.000  0.000  0.000  0.000
  0.000  1.000  0.000  0.000  0.000
  0.000  0.000  1.000  0.000  0.000
  0.000  0.000  0.000  1.000  0.000
  0.000  0.000  0.000  0.000  1.000
   spin  2
    eigenvalues: 
  0.200  0.200  0.200  0.200  0.200
    eigenvectors:
  1.000  0.000  0.000  0.000  0.000
  0.000  1.000  0.000  0.000  0.000
  0.000  0.000  1.000  0.000  0.000
  0.000  0.000  0.000  1.000  0.000
  0.000  0.000  0.000  0.000  1.000
    occupations:
  0.200  0.000  0.000  0.000  0.000
  0.000  0.200  0.000  0.000  0.000
  0.000  0.000  0.200  0.000  0.000
  0.000  0.000  0.000  0.200  0.000
  0.000  0.000  0.000  0.000  0.200
atomic mag. moment =     4.000000
atom   11   Tr[ns(na)] (up, down, total) =   5.00000  1.00000  6.00000
   spin  1
    eigenvalues: 
  1.000  1.000  1.000  1.000  1.000
    eigenvectors:
  1.000  0.000  0.000  0.000  0.000
  0.000  1.000  0.000  0.000  0.000
  0.000  0.000  1.000  0.000  0.000
  0.000  0.000  0.000  1.000  0.000
  0.000  0.000  0.000  0.000  1.000
    occupations:
  1.000  0.000  0.000  0.000  0.000
  0.000  1.000  0.000  0.000  0.000
  0.000  0.000  1.000  0.000  0.000
  0.000  0.000  0.000  1.000  0.000
  0.000  0.000  0.000  0.000  1.000
   spin  2
    eigenvalues: 
  0.200  0.200  0.200  0.200  0.200
    eigenvectors:
  1.000  0.000  0.000  0.000  0.000
  0.000  1.000  0.000  0.000  0.000
  0.000  0.000  1.000  0.000  0.000
  0.000  0.000  0.000  1.000  0.000
  0.000  0.000  0.000  0.000  1.000
    occupations:
  0.200  0.000  0.000  0.000  0.000
  0.000  0.200  0.000  0.000  0.000
  0.000  0.000  0.200  0.000  0.000
  0.000  0.000  0.000  0.200  0.000
  0.000  0.000  0.000  0.000  0.200
atomic mag. moment =     4.000000
atom   12   Tr[ns(na)] (up, down, total) =   5.00000  1.00000  6.00000
   spin  1
    eigenvalues: 
  1.000  1.000  1.000  1.000  1.000
    eigenvectors:
  1.000  0.000  0.000  0.000  0.000
  0.000  1.000  0.000  0.000  0.000
  0.000  0.000  1.000  0.000  0.000
  0.000  0.000  0.000  1.000  0.000
  0.000  0.000  0.000  0.000  1.000
    occupations:
  1.000  0.000  0.000  0.000  0.000
  0.000  1.000  0.000  0.000  0.000
  0.000  0.000  1.000  0.000  0.000
  0.000  0.000  0.000  1.000  0.000
  0.000  0.000  0.000  0.000  1.000
   spin  2
    eigenvalues: 
  0.200  0.200  0.200  0.200  0.200
    eigenvectors:
  1.000  0.000  0.000  0.000  0.000
  0.000  1.000  0.000  0.000  0.000
  0.000  0.000  1.000  0.000  0.000
  0.000  0.000  0.000  1.000  0.000
  0.000  0.000  0.000  0.000  1.000
    occupations:
  0.200  0.000  0.000  0.000  0.000
  0.000  0.200  0.000  0.000  0.000
  0.000  0.000  0.200  0.000  0.000
  0.000  0.000  0.000  0.200  0.000
  0.000  0.000  0.000  0.000  0.200
atomic mag. moment =     4.000000
atom   13   Tr[ns(na)] (up, down, total) =   5.00000  1.00000  6.00000
   spin  1
    eigenvalues: 
  1.000  1.000  1.000  1.000  1.000
    eigenvectors:
  1.000  0.000  0.000  0.000  0.000
  0.000  1.000  0.000  0.000  0.000
  0.000  0.000  1.000  0.000  0.000
  0.000  0.000  0.000  1.000  0.000
  0.000  0.000  0.000  0.000  1.000
    occupations:
  1.000  0.000  0.000  0.000  0.000
  0.000  1.000  0.000  0.000  0.000
  0.000  0.000  1.000  0.000  0.000
  0.000  0.000  0.000  1.000  0.000
  0.000  0.000  0.000  0.000  1.000
   spin  2
    eigenvalues: 
  0.200  0.200  0.200  0.200  0.200
    eigenvectors:
  1.000  0.000  0.000  0.000  0.000
  0.000  1.000  0.000  0.000  0.000
  0.000  0.000  1.000  0.000  0.000
  0.000  0.000  0.000  1.000  0.000
  0.000  0.000  0.000  0.000  1.000
    occupations:
  0.200  0.000  0.000  0.000  0.000
  0.000  0.200  0.000  0.000  0.000
  0.000  0.000  0.200  0.000  0.000
  0.000  0.000  0.000  0.200  0.000
  0.000  0.000  0.000  0.000  0.200
atomic mag. moment =     4.000000
atom   14   Tr[ns(na)] (up, down, total) =   5.00000  1.00000  6.00000
   spin  1
    eigenvalues: 
  1.000  1.000  1.000  1.000  1.000
    eigenvectors:
  1.000  0.000  0.000  0.000  0.000
  0.000  1.000  0.000  0.000  0.000
  0.000  0.000  1.000  0.000  0.000
  0.000  0.000  0.000  1.000  0.000
  0.000  0.000  0.000  0.000  1.000
    occupations:
  1.000  0.000  0.000  0.000  0.000
  0.000  1.000  0.000  0.000  0.000
  0.000  0.000  1.000  0.000  0.000
  0.000  0.000  0.000  1.000  0.000
  0.000  0.000  0.000  0.000  1.000
   spin  2
    eigenvalues: 
  0.200  0.200  0.200  0.200  0.200
    eigenvectors:
  1.000  0.000  0.000  0.000  0.000
  0.000  1.000  0.000  0.000  0.000
  0.000  0.000  1.000  0.000  0.000
  0.000  0.000  0.000  1.000  0.000
  0.000  0.000  0.000  0.000  1.000
    occupations:
  0.200  0.000  0.000  0.000  0.000
  0.000  0.200  0.000  0.000  0.000
  0.000  0.000  0.200  0.000  0.000
  0.000  0.000  0.000  0.200  0.000
  0.000  0.000  0.000  0.000  0.200
atomic mag. moment =     4.000000
atom   15   Tr[ns(na)] (up, down, total) =   5.00000  1.00000  6.00000
   spin  1
    eigenvalues: 
  1.000  1.000  1.000  1.000  1.000
    eigenvectors:
  1.000  0.000  0.000  0.000  0.000
  0.000  1.000  0.000  0.000  0.000
  0.000  0.000  1.000  0.000  0.000
  0.000  0.000  0.000  1.000  0.000
  0.000  0.000  0.000  0.000  1.000
    occupations:
  1.000  0.000  0.000  0.000  0.000
  0.000  1.000  0.000  0.000  0.000
  0.000  0.000  1.000  0.000  0.000
  0.000  0.000  0.000  1.000  0.000
  0.000  0.000  0.000  0.000  1.000
   spin  2
    eigenvalues: 
  0.200  0.200  0.200  0.200  0.200
    eigenvectors:
  1.000  0.000  0.000  0.000  0.000
  0.000  1.000  0.000  0.000  0.000
  0.000  0.000  1.000  0.000  0.000
  0.000  0.000  0.000  1.000  0.000
  0.000  0.000  0.000  0.000  1.000
    occupations:
  0.200  0.000  0.000  0.000  0.000
  0.000  0.200  0.000  0.000  0.000
  0.000  0.000  0.200  0.000  0.000
  0.000  0.000  0.000  0.200  0.000
  0.000  0.000  0.000  0.000  0.200
atomic mag. moment =     4.000000
atom   16   Tr[ns(na)] (up, down, total) =   5.00000  1.00000  6.00000
   spin  1
    eigenvalues: 
  1.000  1.000  1.000  1.000  1.000
    eigenvectors:
  1.000  0.000  0.000  0.000  0.000
  0.000  1.000  0.000  0.000  0.000
  0.000  0.000  1.000  0.000  0.000
  0.000  0.000  0.000  1.000  0.000
  0.000  0.000  0.000  0.000  1.000
    occupations:
  1.000  0.000  0.000  0.000  0.000
  0.000  1.000  0.000  0.000  0.000
  0.000  0.000  1.000  0.000  0.000
  0.000  0.000  0.000  1.000  0.000
  0.000  0.000  0.000  0.000  1.000
   spin  2
    eigenvalues: 
  0.200  0.200  0.200  0.200  0.200
    eigenvectors:
  1.000  0.000  0.000  0.000  0.000
  0.000  1.000  0.000  0.000  0.000
  0.000  0.000  1.000  0.000  0.000
  0.000  0.000  0.000  1.000  0.000
  0.000  0.000  0.000  0.000  1.000
    occupations:
  0.200  0.000  0.000  0.000  0.000
  0.000  0.200  0.000  0.000  0.000
  0.000  0.000  0.200  0.000  0.000
  0.000  0.000  0.000  0.200  0.000
  0.000  0.000  0.000  0.000  0.200
atomic mag. moment =     4.000000
atom   17   Tr[ns(na)] (up, down, total) =   5.00000  1.00000  6.00000
   spin  1
    eigenvalues: 
  1.000  1.000  1.000  1.000  1.000
    eigenvectors:
  1.000  0.000  0.000  0.000  0.000
  0.000  1.000  0.000  0.000  0.000
  0.000  0.000  1.000  0.000  0.000
  0.000  0.000  0.000  1.000  0.000
  0.000  0.000  0.000  0.000  1.000
    occupations:
  1.000  0.000  0.000  0.000  0.000
  0.000  1.000  0.000  0.000  0.000
  0.000  0.000  1.000  0.000  0.000
  0.000  0.000  0.000  1.000  0.000
  0.000  0.000  0.000  0.000  1.000
   spin  2
    eigenvalues: 
  0.200  0.200  0.200  0.200  0.200
    eigenvectors:
  1.000  0.000  0.000  0.000  0.000
  0.000  1.000  0.000  0.000  0.000
  0.000  0.000  1.000  0.000  0.000
  0.000  0.000  0.000  1.000  0.000
  0.000  0.000  0.000  0.000  1.000
    occupations:
  0.200  0.000  0.000  0.000  0.000
  0.000  0.200  0.000  0.000  0.000
  0.000  0.000  0.200  0.000  0.000
  0.000  0.000  0.000  0.200  0.000
  0.000  0.000  0.000  0.000  0.200
atomic mag. moment =     4.000000
atom   18   Tr[ns(na)] (up, down, total) =   5.00000  1.00000  6.00000
   spin  1
    eigenvalues: 
  1.000  1.000  1.000  1.000  1.000
    eigenvectors:
  1.000  0.000  0.000  0.000  0.000
  0.000  1.000  0.000  0.000  0.000
  0.000  0.000  1.000  0.000  0.000
  0.000  0.000  0.000  1.000  0.000
  0.000  0.000  0.000  0.000  1.000
    occupations:
  1.000  0.000  0.000  0.000  0.000
  0.000  1.000  0.000  0.000  0.000
  0.000  0.000  1.000  0.000  0.000
  0.000  0.000  0.000  1.000  0.000
  0.000  0.000  0.000  0.000  1.000
   spin  2
    eigenvalues: 
  0.200  0.200  0.200  0.200  0.200
    eigenvectors:
  1.000  0.000  0.000  0.000  0.000
  0.000  1.000  0.000  0.000  0.000
  0.000  0.000  1.000  0.000  0.000
  0.000  0.000  0.000  1.000  0.000
  0.000  0.000  0.000  0.000  1.000
    occupations:
  0.200  0.000  0.000  0.000  0.000
  0.000  0.200  0.000  0.000  0.000
  0.000  0.000  0.200  0.000  0.000
  0.000  0.000  0.000  0.200  0.000
  0.000  0.000  0.000  0.000  0.200
atomic mag. moment =     4.000000
atom   19   Tr[ns(na)] (up, down, total) =   5.00000  1.00000  6.00000
   spin  1
    eigenvalues: 
  1.000  1.000  1.000  1.000  1.000
    eigenvectors:
  1.000  0.000  0.000  0.000  0.000
  0.000  1.000  0.000  0.000  0.000
  0.000  0.000  1.000  0.000  0.000
  0.000  0.000  0.000  1.000  0.000
  0.000  0.000  0.000  0.000  1.000
    occupations:
  1.000  0.000  0.000  0.000  0.000
  0.000  1.000  0.000  0.000  0.000
  0.000  0.000  1.000  0.000  0.000
  0.000  0.000  0.000  1.000  0.000
  0.000  0.000  0.000  0.000  1.000
   spin  2
    eigenvalues: 
  0.200  0.200  0.200  0.200  0.200
    eigenvectors:
  1.000  0.000  0.000  0.000  0.000
  0.000  1.000  0.000  0.000  0.000
  0.000  0.000  1.000  0.000  0.000
  0.000  0.000  0.000  1.000  0.000
  0.000  0.000  0.000  0.000  1.000
    occupations:
  0.200  0.000  0.000  0.000  0.000
  0.000  0.200  0.000  0.000  0.000
  0.000  0.000  0.200  0.000  0.000
  0.000  0.000  0.000  0.200  0.000
  0.000  0.000  0.000  0.000  0.200
atomic mag. moment =     4.000000
atom   20   Tr[ns(na)] (up, down, total) =   5.00000  1.00000  6.00000
   spin  1
    eigenvalues: 
  1.000  1.000  1.000  1.000  1.000
    eigenvectors:
  1.000  0.000  0.000  0.000  0.000
  0.000  1.000  0.000  0.000  0.000
  0.000  0.000  1.000  0.000  0.000
  0.000  0.000  0.000  1.000  0.000
  0.000  0.000  0.000  0.000  1.000
    occupations:
  1.000  0.000  0.000  0.000  0.000
  0.000  1.000  0.000  0.000  0.000
  0.000  0.000  1.000  0.000  0.000
  0.000  0.000  0.000  1.000  0.000
  0.000  0.000  0.000  0.000  1.000
   spin  2
    eigenvalues: 
  0.200  0.200  0.200  0.200  0.200
    eigenvectors:
  1.000  0.000  0.000  0.000  0.000
  0.000  1.000  0.000  0.000  0.000
  0.000  0.000  1.000  0.000  0.000
  0.000  0.000  0.000  1.000  0.000
  0.000  0.000  0.000  0.000  1.000
    occupations:
  0.200  0.000  0.000  0.000  0.000
  0.000  0.200  0.000  0.000  0.000
  0.000  0.000  0.200  0.000  0.000
  0.000  0.000  0.000  0.200  0.000
  0.000  0.000  0.000  0.000  0.200
atomic mag. moment =     4.000000
N of occupied +U levels = 120.0000000
 --- exit write_ns ---
 Atomic wfc used for LDA+U Projector are NOT orthogonalized
     Starting wfc are  272 randomized atomic wfcs
     Checking if some PAW data can be deallocated... 
       node    0, deallocated PAW data for type:  2
       node    0, deallocated PAW data for type:  3
       node    1, deallocated PAW data for type:  2
       node    1, deallocated PAW data for type:  3
       node    2, deallocated PAW data for type:  2
       node    2, deallocated PAW data for type:  3
       node    3, deallocated PAW data for type:  2
       node    3, deallocated PAW data for type:  3
       node    4, deallocated PAW data for type:  2
       node    4, deallocated PAW data for type:  3
       node    5, deallocated PAW data for type:  2
       node    5, deallocated PAW data for type:  3
       node    6, deallocated PAW data for type:  2
       node    6, deallocated PAW data for type:  3
       node    7, deallocated PAW data for type:  2
       node    7, deallocated PAW data for type:  3
       node    8, deallocated PAW data for type:  2
       node    8, deallocated PAW data for type:  3
       node    9, deallocated PAW data for type:  2
       node    9, deallocated PAW data for type:  3
       node   10, deallocated PAW data for type:  2
       node   10, deallocated PAW data for type:  3
       node   11, deallocated PAW data for type:  2
       node   11, deallocated PAW data for type:  3
       node   12, deallocated PAW data for type:  2
       node   12, deallocated PAW data for type:  3
       node   13, deallocated PAW data for type:  2
       node   13, deallocated PAW data for type:  3
       node   14, deallocated PAW data for type:  2
       node   14, deallocated PAW data for type:  3
       node   15, deallocated PAW data for type:  2
       node   15, deallocated PAW data for type:  3
       node   16, deallocated PAW data for type:  2
       node   16, deallocated PAW data for type:  3
       node   17, deallocated PAW data for type:  2
       node   17, deallocated PAW data for type:  3
       node   18, deallocated PAW data for type:  2
       node   18, deallocated PAW data for type:  3
       node   19, deallocated PAW data for type:  2
       node   19, deallocated PAW data for type:  3
       node   20, deallocated PAW data for type:  2
       node   20, deallocated PAW data for type:  3
       node   21, deallocated PAW data for type:  2
       node   21, deallocated PAW data for type:  3
       node   22, deallocated PAW data for type:  2
       node   22, deallocated PAW data for type:  3
       node   23, deallocated PAW data for type:  2
       node   23, deallocated PAW data for type:  3
       node   24, deallocated PAW data for type:  2
       node   24, deallocated PAW data for type:  3
       node   25, deallocated PAW data for type:  2
       node   25, deallocated PAW data for type:  3
       node   26, deallocated PAW data for type:  2
       node   26, deallocated PAW data for type:  3
       node   27, deallocated PAW data for type:  2
       node   27, deallocated PAW data for type:  3
       node   28, deallocated PAW data for type:  2
       node   28, deallocated PAW data for type:  3
       node   29, deallocated PAW data for type:  2
       node   29, deallocated PAW data for type:  3
       node   30, deallocated PAW data for type:  2
       node   30, deallocated PAW data for type:  3
       node   31, deallocated PAW data for type:  2
       node   31, deallocated PAW data for type:  3
       node   32, deallocated PAW data for type:  2
       node   32, deallocated PAW data for type:  3
       node   33, deallocated PAW data for type:  2
       node   33, deallocated PAW data for type:  3
       node   34, deallocated PAW data for type:  2
       node   34, deallocated PAW data for type:  3
       node   35, deallocated PAW data for type:  2
       node   35, deallocated PAW data for type:  3
       node   36, deallocated PAW data for type:  2
       node   36, deallocated PAW data for type:  3
       node   37, deallocated PAW data for type:  2
       node   37, deallocated PAW data for type:  3
       node   38, deallocated PAW data for type:  2
       node   38, deallocated PAW data for type:  3
       node   39, deallocated PAW data for type:  2
       node   39, deallocated PAW data for type:  3
       node   40, deallocated PAW data for type:  2
       node   40, deallocated PAW data for type:  3
       node   41, deallocated PAW data for type:  2
       node   41, deallocated PAW data for type:  3
       node   42, deallocated PAW data for type:  2
       node   42, deallocated PAW data for type:  3
       node   43, deallocated PAW data for type:  2
       node   43, deallocated PAW data for type:  3
       node   44, deallocated PAW data for type:  2
       node   44, deallocated PAW data for type:  3
       node   45, deallocated PAW data for type:  2
       node   45, deallocated PAW data for type:  3
       node   46, deallocated PAW data for type:  2
       node   46, deallocated PAW data for type:  3
       node   47, deallocated PAW data for type:  2
       node   47, deallocated PAW data for type:  3
       node   48, deallocated PAW data for type:  2
       node   48, deallocated PAW data for type:  3
       node   49, deallocated PAW data for type:  2
       node   49, deallocated PAW data for type:  3
       node   50, deallocated PAW data for type:  2
       node   50, deallocated PAW data for type:  3
       node   51, deallocated PAW data for type:  2
       node   51, deallocated PAW data for type:  3
       node   52, deallocated PAW data for type:  2
       node   52, deallocated PAW data for type:  3
       node   53, deallocated PAW data for type:  2
       node   53, deallocated PAW data for type:  3
       node   54, deallocated PAW data for type:  2
       node   54, deallocated PAW data for type:  3
       node   55, deallocated PAW data for type:  2
       node   55, deallocated PAW data for type:  3
       node   56, deallocated PAW data for type:  2
       node   56, deallocated PAW data for type:  3
       node   57, deallocated PAW data for type:  2
       node   57, deallocated PAW data for type:  3
       node   58, deallocated PAW data for type:  2
       node   58, deallocated PAW data for type:  3
       node   59, deallocated PAW data for type:  2
       node   59, deallocated PAW data for type:  3
       node   60, deallocated PAW data for type:  2
       node   60, deallocated PAW data for type:  3
       node   61, deallocated PAW data for type:  2
       node   61, deallocated PAW data for type:  3
       node   62, deallocated PAW data for type:  2
       node   62, deallocated PAW data for type:  3
       node   63, deallocated PAW data for type:  2
       node   63, deallocated PAW data for type:  3
       node   64, deallocated PAW data for type:  2
       node   64, deallocated PAW data for type:  3
       node   65, deallocated PAW data for type:  2
       node   65, deallocated PAW data for type:  3
       node   66, deallocated PAW data for type:  2
       node   66, deallocated PAW data for type:  3
       node   67, deallocated PAW data for type:  2
       node   67, deallocated PAW data for type:  3
       node   68, deallocated PAW data for type:  2
       node   68, deallocated PAW data for type:  3
       node   69, deallocated PAW data for type:  2
       node   69, deallocated PAW data for type:  3
       node   70, deallocated PAW data for type:  2
       node   70, deallocated PAW data for type:  3
       node   71, deallocated PAW data for type:  2
       node   71, deallocated PAW data for type:  3
       node   72, deallocated PAW data for type:  2
       node   72, deallocated PAW data for type:  3
       node   73, deallocated PAW data for type:  2
       node   73, deallocated PAW data for type:  3
       node   74, deallocated PAW data for type:  2
       node   74, deallocated PAW data for type:  3
       node   75, deallocated PAW data for type:  2
       node   75, deallocated PAW data for type:  3
       node   76, deallocated PAW data for type:  2
       node   76, deallocated PAW data for type:  3
       node   77, deallocated PAW data for type:  2
       node   77, deallocated PAW data for type:  3
       node   78, deallocated PAW data for type:  1
       node   78, deallocated PAW data for type:  3
       node   79, deallocated PAW data for type:  1
       node   79, deallocated PAW data for type:  3
       node   80, deallocated PAW data for type:  1
       node   80, deallocated PAW data for type:  3
       node   81, deallocated PAW data for type:  1
       node   81, deallocated PAW data for type:  2
       node   82, deallocated PAW data for type:  1
       node   82, deallocated PAW data for type:  2
       node   83, deallocated PAW data for type:  1
       node   83, deallocated PAW data for type:  2
       node   84, deallocated PAW data for type:  1
       node   84, deallocated PAW data for type:  2
       node   85, deallocated PAW data for type:  1
       node   85, deallocated PAW data for type:  2
       node   86, deallocated PAW data for type:  1
       node   86, deallocated PAW data for type:  2
       node   87, deallocated PAW data for type:  1
       node   87, deallocated PAW data for type:  3
       node   88, deallocated PAW data for type:  1
       node   88, deallocated PAW data for type:  3
       node   89, deallocated PAW data for type:  1
       node   89, deallocated PAW data for type:  3
       node   90, deallocated PAW data for type:  1
       node   90, deallocated PAW data for type:  2
       node   91, deallocated PAW data for type:  1
       node   91, deallocated PAW data for type:  2
       node   92, deallocated PAW data for type:  1
       node   92, deallocated PAW data for type:  2
       node   93, deallocated PAW data for type:  1
       node   93, deallocated PAW data for type:  2
       node   94, deallocated PAW data for type:  1
       node   94, deallocated PAW data for type:  2
       node   95, deallocated PAW data for type:  1
       node   95, deallocated PAW data for type:  2

     total cpu time spent up to now is       57.8 secs

     per-process dynamical memory:   229.4 Mb

     Self-consistent Calculation

     iteration #  1     ecut=    95.00 Ry     beta=0.50
     Davidson diagonalization with overlap
     ethr =  1.00E-02,  avg # of iterations =  3.0
 --- enter write_ns ---
 LDA+U parameters:
U( 1)     =  0.00000000
alpha( 1) =  0.00000000
atom    1   Tr[ns(na)] (up, down, total) =   4.97564  1.06280  6.03844
   spin  1
    eigenvalues: 
  0.994  0.994  0.995  0.996  0.997
    eigenvectors:
  0.973  0.004  0.023  0.000  0.000
  0.023  0.000  0.977  0.000  0.000
  0.004  0.996  0.000  0.000  0.000
  0.000  0.000  0.000  0.001  0.999
  0.000  0.000  0.000  0.999  0.001
    occupations:
  0.994  0.000  0.000  0.000  0.000
  0.000  0.995 -0.000  0.000 -0.000
  0.000 -0.000  0.994  0.000 -0.000
  0.000  0.000  0.000  0.997 -0.000
  0.000 -0.000 -0.000 -0.000  0.996
   spin  2
    eigenvalues: 
  0.186  0.186  0.210  0.231  0.250
    eigenvectors:
  0.000  0.000  1.000  0.000  0.000
  0.318  0.682  0.000  0.000  0.000
  0.682  0.318  0.000  0.000  0.000
  0.000  0.000  0.000  1.000  0.000
  0.000  0.000  0.000  0.000  1.000
    occupations:
  0.210 -0.000  0.000  0.000 -0.000
 -0.000  0.186  0.000 -0.000 -0.000
  0.000  0.000  0.186  0.000 -0.000
  0.000 -0.000  0.000  0.231 -0.000
 -0.000 -0.000 -0.000 -0.000  0.250
atomic mag. moment =     3.912835
atom    2   Tr[ns(na)] (up, down, total) =   4.97522  1.06332  6.03854
   spin  1
    eigenvalues: 
  0.994  0.994  0.994  0.996  0.997
    eigenvectors:
  0.970  0.004  0.026  0.000  0.000
  0.030  0.179  0.791  0.000  0.000
  0.000  0.816  0.183  0.000  0.000
  0.000  0.000  0.000  0.000  1.000
  0.000  0.000  0.000  1.000  0.000
    occupations:
  0.994  0.000 -0.000 -0.000  0.000
  0.000  0.994 -0.000  0.000  0.000
 -0.000 -0.000  0.994 -0.000  0.000
 -0.000  0.000 -0.000  0.997 -0.000
  0.000  0.000  0.000 -0.000  0.996
   spin  2
    eigenvalues: 
  0.186  0.187  0.210  0.230  0.249
    eigenvectors:
  0.000  0.000  0.999  0.001  0.000
  0.008  0.992  0.000  0.000  0.000
  0.992  0.008  0.000  0.000  0.000
  0.000  0.000  0.001  0.999  0.000
  0.000  0.000  0.000  0.000  1.000
    occupations:
  0.210  0.000  0.000 -0.000  0.000
  0.000  0.187 -0.000  0.000  0.000
  0.000 -0.000  0.186 -0.000  0.000
 -0.000  0.000 -0.000  0.230  0.000
  0.000  0.000  0.000  0.000  0.249
atomic mag. moment =     3.911905
atom    3   Tr[ns(na)] (up, down, total) =   4.97518  1.06369  6.03887
   spin  1
    eigenvalues: 
  0.994  0.994  0.994  0.996  0.997
    eigenvectors:
  0.988  0.000  0.012  0.000  0.000
  0.012  0.007  0.981  0.000  0.000
  0.000  0.993  0.007  0.000  0.000
  0.000  0.000  0.000  0.000  1.000
  0.000  0.000  0.000  1.000  0.000
    occupations:
  0.994 -0.000  0.000  0.000  0.000
 -0.000  0.994 -0.000  0.000 -0.000
  0.000 -0.000  0.994  0.000 -0.000
  0.000  0.000  0.000  0.997 -0.000
  0.000 -0.000 -0.000 -0.000  0.996
   spin  2
    eigenvalues: 
  0.186  0.188  0.210  0.231  0.249
    eigenvectors:
  0.000  0.000  1.000  0.000  0.000
  0.960  0.040  0.000  0.000  0.000
  0.040  0.960  0.000  0.000  0.000
  0.000  0.000  0.000  1.000  0.000
  0.000  0.000  0.000  0.000  1.000
    occupations:
  0.210  0.000 -0.000 -0.000  0.000
  0.000  0.186  0.000 -0.000 -0.000
 -0.000  0.000  0.187 -0.000  0.000
 -0.000 -0.000 -0.000  0.231 -0.000
  0.000 -0.000  0.000 -0.000  0.249
atomic mag. moment =     3.911497
atom    4   Tr[ns(na)] (up, down, total) =   4.97529  1.05915  6.03444
   spin  1
    eigenvalues: 
  0.994  0.994  0.994  0.996  0.997
    eigenvectors:
  0.971  0.000  0.028  0.000  0.000
  0.028  0.027  0.945  0.000  0.000
  0.000  0.973  0.027  0.000  0.000
  0.000  0.000  0.000  0.001  0.999
  0.000  0.000  0.000  0.999  0.001
    occupations:
  0.994 -0.000 -0.000 -0.000  0.000
 -0.000  0.994  0.000 -0.000 -0.000
 -0.000  0.000  0.994 -0.000 -0.000
 -0.000 -0.000 -0.000  0.997  0.000
  0.000 -0.000 -0.000  0.000  0.996
   spin  2
    eigenvalues: 
  0.185  0.185  0.210  0.230  0.249
    eigenvectors:
  0.000  0.000  1.000  0.000  0.000
  0.528  0.471  0.000  0.000  0.000
  0.472  0.528  0.000  0.000  0.000
  0.000  0.000  0.000  1.000  0.000
  0.000  0.000  0.000  0.000  1.000
    occupations:
  0.210 -0.000  0.000  0.000  0.000
 -0.000  0.185 -0.000 -0.000  0.000
  0.000 -0.000  0.185  0.000  0.000
  0.000 -0.000  0.000  0.230  0.000
  0.000  0.000  0.000  0.000  0.249
atomic mag. moment =     3.916133
atom    5   Tr[ns(na)] (up, down, total) =   4.98097  2.30267  7.28364
   spin  1
    eigenvalues: 
  0.996  0.996  0.996  0.996  0.997
    eigenvectors:
  0.000  0.000  0.000  0.000  1.000
  0.002  0.673  0.325  0.000  0.000
  0.001  0.324  0.675  0.000  0.000
  0.000  0.000  0.000  1.000  0.000
  0.997  0.003  0.000  0.000  0.000
    occupations:
  0.997  0.000 -0.000 -0.000 -0.000
  0.000  0.996  0.000 -0.000 -0.000
 -0.000  0.000  0.996  0.000  0.000
 -0.000 -0.000  0.000  0.996 -0.000
 -0.000 -0.000  0.000 -0.000  0.996
   spin  2
    eigenvalues: 
  0.397  0.404  0.496  0.502  0.503
    eigenvectors:
  0.007  0.993  0.000  0.000  0.000
  0.000  0.000  0.010  0.284  0.705
  0.000  0.000  0.000  0.713  0.286
  0.993  0.007  0.000  0.000  0.000
  0.000  0.000  0.989  0.002  0.008
    occupations:
  0.404 -0.000 -0.000 -0.001  0.001
 -0.000  0.503  0.000 -0.000 -0.001
 -0.000  0.000  0.503 -0.000 -0.000
 -0.001 -0.000 -0.000  0.397 -0.000
  0.001 -0.001 -0.000 -0.000  0.496
atomic mag. moment =     2.678296
atom    6   Tr[ns(na)] (up, down, total) =   4.98108  2.30337  7.28445
   spin  1
    eigenvalues: 
  0.996  0.996  0.996  0.996  0.997
    eigenvectors:
  0.000  0.000  0.000  0.001  0.999
  0.010  0.667  0.324  0.000  0.000
  0.010  0.314  0.676  0.000  0.000
  0.000  0.000  0.000  0.999  0.001
  0.981  0.019  0.001  0.000  0.000
    occupations:
  0.997  0.000  0.000 -0.000  0.000
  0.000  0.996 -0.000 -0.000  0.000
  0.000 -0.000  0.996 -0.000  0.000
 -0.000 -0.000 -0.000  0.996 -0.000
  0.000  0.000  0.000 -0.000  0.996
   spin  2
    eigenvalues: 
  0.398  0.404  0.496  0.502  0.503
    eigenvectors:
  0.001  0.999  0.000  0.000  0.000
  0.000  0.000  0.000  0.695  0.304
  0.000  0.000  0.004  0.302  0.693
  0.999  0.001  0.000  0.000  0.000
  0.000  0.000  0.995  0.002  0.002
    occupations:
  0.404  0.000  0.000  0.000 -0.001
  0.000  0.503 -0.000 -0.000 -0.000
  0.000 -0.000  0.503  0.000 -0.000
  0.000 -0.000  0.000  0.398 -0.000
 -0.001 -0.000 -0.000 -0.000  0.496
atomic mag. moment =     2.677708
atom    7   Tr[ns(na)] (up, down, total) =   4.98119  2.30260  7.28379
   spin  1
    eigenvalues: 
  0.996  0.996  0.996  0.996  0.997
    eigenvectors:
  0.000  0.000  0.000  0.001  0.999
  0.005  0.355  0.639  0.001  0.000
  0.002  0.644  0.354  0.000  0.000
  0.000  0.000  0.000  0.999  0.001
  0.993  0.000  0.007  0.000  0.000
    occupations:
  0.997 -0.000  0.000  0.000  0.000
 -0.000  0.996 -0.000  0.000  0.000
  0.000 -0.000  0.996  0.000 -0.000
  0.000  0.000  0.000  0.996  0.000
  0.000  0.000 -0.000  0.000  0.996
   spin  2
    eigenvalues: 
  0.397  0.404  0.495  0.502  0.504
    eigenvectors:
  0.001  0.999  0.000  0.000  0.000
  0.000  0.000  0.001  0.148  0.852
  0.000  0.000  0.005  0.847  0.148
  0.999  0.001  0.000  0.000  0.000
  0.000  0.000  0.995  0.005  0.000
    occupations:
  0.404 -0.000 -0.000  0.000 -0.001
 -0.000  0.503 -0.000 -0.000  0.000
 -0.000 -0.000  0.502 -0.000  0.000
  0.000 -0.000 -0.000  0.397  0.000
 -0.001  0.000  0.000  0.000  0.495
atomic mag. moment =     2.678585
atom    8   Tr[ns(na)] (up, down, total) =   4.98115  2.30202  7.28317
   spin  1
    eigenvalues: 
  0.996  0.996  0.996  0.996  0.997
    eigenvectors:
  0.000  0.000  0.000  0.000  1.000
  0.009  0.274  0.717  0.000  0.000
  0.002  0.725  0.273  0.000  0.000
  0.000  0.000  0.000  1.000  0.000
  0.989  0.000  0.011  0.000  0.000
    occupations:
  0.997  0.000 -0.000  0.000  0.000
  0.000  0.996  0.000  0.000 -0.000
 -0.000  0.000  0.996  0.000 -0.000
  0.000  0.000  0.000  0.996 -0.000
  0.000 -0.000 -0.000 -0.000  0.996
   spin  2
    eigenvalues: 
  0.397  0.404  0.496  0.502  0.503
    eigenvectors:
  0.000  1.000  0.000  0.000  0.000
  0.000  0.000  0.004  0.552  0.444
  0.000  0.000  0.000  0.444  0.555
  1.000  0.000  0.000  0.000  0.000
  0.000  0.000  0.995  0.004  0.001
    occupations:
  0.404  0.000 -0.000 -0.000  0.000
  0.000  0.503  0.001  0.000 -0.000
 -0.000  0.001  0.503 -0.000  0.000
 -0.000  0.000 -0.000  0.397  0.000
  0.000 -0.000  0.000  0.000  0.496
atomic mag. moment =     2.679126
atom    9   Tr[ns(na)] (up, down, total) =   4.97833  2.26001  7.23833
   spin  1
    eigenvalues: 
  0.994  0.994  0.995  0.997  0.997
    eigenvectors:
  0.000  0.000  0.000  0.000  1.000
  0.868  0.132  0.000  0.000  0.000
  0.132  0.868  0.000  0.000  0.000
  0.000  0.000  0.000  1.000  0.000
  0.000  0.000  1.000  0.000  0.000
    occupations:
  0.997 -0.000 -0.000 -0.000 -0.000
 -0.000  0.994 -0.000 -0.000 -0.000
 -0.000 -0.000  0.994  0.000 -0.000
 -0.000 -0.000  0.000  0.997  0.000
 -0.000 -0.000 -0.000  0.000  0.995
   spin  2
    eigenvalues: 
  0.360  0.390  0.496  0.497  0.517
    eigenvectors:
  1.000  0.000  0.000  0.000  0.000
  0.000  0.000  0.766  0.234  0.000
  0.000  0.000  0.234  0.766  0.000
  0.000  1.000  0.000  0.000  0.000
  0.000  0.000  0.000  0.000  1.000
    occupations:
  0.360  0.000  0.001  0.000 -0.000
  0.000  0.496 -0.001  0.001  0.000
  0.001 -0.001  0.497  0.000  0.000
  0.000  0.001  0.000  0.390 -0.000
 -0.000  0.000  0.000 -0.000  0.517
atomic mag. moment =     2.718320
atom   10   Tr[ns(na)] (up, down, total) =   4.97839  2.28559  7.26397
   spin  1
    eigenvalues: 
  0.994  0.995  0.995  0.997  0.997
    eigenvectors:
  0.000  0.000  0.000  0.000  1.000
  0.999  0.001  0.000  0.000  0.000
  0.001  0.998  0.000  0.000  0.000
  0.000  0.000  0.000  1.000  0.000
  0.000  0.000  1.000  0.000  0.000
    occupations:
  0.997  0.000  0.000  0.000  0.000
  0.000  0.994  0.000  0.000  0.000
  0.000  0.000  0.995 -0.000  0.000
  0.000  0.000 -0.000  0.997  0.000
  0.000  0.000  0.000  0.000  0.995
   spin  2
    eigenvalues: 
  0.359  0.393  0.503  0.504  0.527
    eigenvectors:
  1.000  0.000  0.000  0.000  0.000
  0.000  0.000  0.512  0.488  0.000
  0.000  0.000  0.488  0.512  0.001
  0.000  1.000  0.000  0.000  0.000
  0.000  0.000  0.001  0.000  0.999
    occupations:
  0.359 -0.000 -0.000 -0.001 -0.000
 -0.000  0.503 -0.000 -0.000 -0.000
 -0.000 -0.000  0.503  0.000 -0.001
 -0.001 -0.000  0.000  0.393 -0.000
 -0.000 -0.000 -0.001 -0.000  0.527
atomic mag. moment =     2.692800
atom   11   Tr[ns(na)] (up, down, total) =   4.97841  2.28497  7.26338
   spin  1
    eigenvalues: 
  0.994  0.994  0.995  0.997  0.997
    eigenvectors:
  0.000  0.000  0.000  0.000  1.000
  0.005  0.995  0.001  0.000  0.000
  0.995  0.005  0.000  0.000  0.000
  0.000  0.000  0.000  1.000  0.000
  0.000  0.001  0.999  0.000  0.000
    occupations:
  0.997  0.000  0.000  0.000 -0.000
  0.000  0.994  0.000  0.000  0.000
  0.000  0.000  0.994  0.000 -0.000
  0.000  0.000  0.000  0.997  0.000
 -0.000  0.000 -0.000  0.000  0.995
   spin  2
    eigenvalues: 
  0.358  0.393  0.503  0.504  0.527
    eigenvectors:
  1.000  0.000  0.000  0.000  0.000
  0.000  0.000  0.604  0.395  0.001
  0.000  0.000  0.396  0.604  0.001
  0.000  1.000  0.000  0.000  0.000
  0.000  0.000  0.000  0.001  0.999
    occupations:
  0.358 -0.001  0.000  0.001 -0.000
 -0.001  0.503  0.001  0.000 -0.001
  0.000  0.001  0.504 -0.000 -0.001
  0.001  0.000 -0.000  0.393  0.000
 -0.000 -0.001 -0.001  0.000  0.527
atomic mag. moment =     2.693433
atom   12   Tr[ns(na)] (up, down, total) =   4.97886  2.30019  7.27905
   spin  1
    eigenvalues: 
  0.994  0.995  0.995  0.997  0.998
    eigenvectors:
  0.000  0.000  0.000  0.000  1.000
  0.207  0.793  0.000  0.000  0.000
  0.792  0.207  0.001  0.000  0.000
  0.000  0.000  0.000  1.000  0.000
  0.001  0.000  0.999  0.000  0.000
    occupations:
  0.998 -0.000  0.000 -0.000 -0.000
 -0.000  0.995 -0.000 -0.000 -0.000
  0.000 -0.000  0.994  0.000 -0.000
 -0.000 -0.000  0.000  0.997 -0.000
 -0.000 -0.000 -0.000 -0.000  0.995
   spin  2
    eigenvalues: 
  0.351  0.392  0.512  0.512  0.532
    eigenvectors:
  1.000  0.000  0.000  0.000  0.000
  0.000  0.000  0.984  0.016  0.000
  0.000  0.000  0.016  0.983  0.001
  0.000  1.000  0.000  0.000  0.000
  0.000  0.000  0.000  0.001  0.999
    occupations:
  0.351  0.000 -0.000  0.000 -0.000
  0.000  0.512 -0.000  0.000  0.000
 -0.000 -0.000  0.513  0.000 -0.001
  0.000  0.000  0.000  0.392  0.000
 -0.000  0.000 -0.001  0.000  0.532
atomic mag. moment =     2.678663
atom   13   Tr[ns(na)] (up, down, total) =   4.98123  2.29914  7.28037
   spin  1
    eigenvalues: 
  0.996  0.996  0.996  0.996  0.997
    eigenvectors:
  0.001  0.001  0.005  0.001  0.993
  0.127  0.000  0.870  0.000  0.003
  0.052  0.935  0.012  0.000  0.000
  0.001  0.000  0.000  0.998  0.001
  0.820  0.063  0.114  0.001  0.003
    occupations:
  0.997  0.000  0.000  0.000 -0.000
  0.000  0.996 -0.000  0.000 -0.000
  0.000 -0.000  0.996 -0.000 -0.000
  0.000  0.000 -0.000  0.996  0.000
 -0.000 -0.000 -0.000  0.000  0.996
   spin  2
    eigenvalues: 
  0.397  0.403  0.483  0.507  0.509
    eigenvectors:
  0.004  0.994  0.000  0.002  0.000
  0.000  0.000  0.214  0.012  0.774
  0.000  0.001  0.235  0.742  0.022
  0.996  0.004  0.000  0.000  0.000
  0.000  0.001  0.551  0.244  0.204
    occupations:
  0.403  0.001  0.004 -0.000  0.003
  0.001  0.504 -0.006 -0.001  0.009
  0.004 -0.006  0.501  0.001  0.009
 -0.000 -0.001  0.001  0.397 -0.000
  0.003  0.009  0.009 -0.000  0.494
atomic mag. moment =     2.682097
atom   14   Tr[ns(na)] (up, down, total) =   4.98122  2.28060  7.26182
   spin  1
    eigenvalues: 
  0.996  0.996  0.996  0.996  0.997
    eigenvectors:
  0.001  0.001  0.005  0.002  0.991
  0.113  0.000  0.883  0.000  0.003
  0.043  0.952  0.004  0.000  0.001
  0.000  0.000  0.000  0.998  0.002
  0.843  0.047  0.107  0.000  0.003
    occupations:
  0.997  0.000 -0.000  0.000  0.000
  0.000  0.996  0.000  0.000  0.000
 -0.000  0.000  0.996 -0.000 -0.000
  0.000  0.000 -0.000  0.996 -0.000
  0.000  0.000 -0.000 -0.000  0.996
   spin  2
    eigenvalues: 
  0.396  0.399  0.478  0.503  0.505
    eigenvectors:
  0.000  0.998  0.000  0.001  0.001
  0.000  0.000  0.232  0.098  0.669
  0.000  0.001  0.205  0.789  0.005
  1.000  0.000  0.000  0.000  0.000
  0.000  0.001  0.563  0.112  0.324
    occupations:
  0.399  0.002 -0.003 -0.000 -0.003
  0.002  0.498  0.005 -0.001 -0.010
 -0.003  0.005  0.498 -0.001  0.009
 -0.000 -0.001 -0.001  0.396 -0.000
 -0.003 -0.010  0.009 -0.000  0.489
atomic mag. moment =     2.700625
atom   15   Tr[ns(na)] (up, down, total) =   4.98130  2.31340  7.29470
   spin  1
    eigenvalues: 
  0.996  0.996  0.996  0.997  0.997
    eigenvectors:
  0.002  0.011  0.005  0.004  0.978
  0.010  0.763  0.223  0.000  0.003
  0.060  0.187  0.742  0.001  0.010
  0.000  0.000  0.001  0.995  0.004
  0.928  0.039  0.028  0.000  0.005
    occupations:
  0.997 -0.000  0.000 -0.000  0.000
 -0.000  0.996  0.000 -0.000 -0.000
  0.000  0.000  0.996 -0.000  0.000
 -0.000 -0.000 -0.000  0.997  0.000
  0.000 -0.000  0.000  0.000  0.996
   spin  2
    eigenvalues: 
  0.398  0.405  0.487  0.510  0.513
    eigenvectors:
  0.001  0.998  0.000  0.001  0.000
  0.000  0.000  0.181  0.451  0.368
  0.000  0.000  0.258  0.143  0.599
  0.998  0.001  0.000  0.000  0.000
  0.000  0.001  0.561  0.406  0.033
    occupations:
  0.405 -0.002 -0.001  0.000 -0.003
 -0.002  0.507  0.006  0.001  0.007
 -0.001  0.006  0.506  0.001 -0.009
  0.000  0.001  0.001  0.398 -0.000
 -0.003  0.007 -0.009 -0.000  0.497
atomic mag. moment =     2.667906
atom   16   Tr[ns(na)] (up, down, total) =   4.98126  2.29749  7.27875
   spin  1
    eigenvalues: 
  0.996  0.996  0.996  0.996  0.997
    eigenvectors:
  0.003  0.015  0.000  0.003  0.980
  0.006  0.317  0.674  0.000  0.003
  0.031  0.636  0.323  0.002  0.009
  0.001  0.001  0.002  0.994  0.002
  0.960  0.033  0.001  0.001  0.005
    occupations:
  0.997 -0.000 -0.000 -0.000 -0.000
 -0.000  0.996 -0.000 -0.000  0.000
 -0.000 -0.000  0.996  0.000  0.000
 -0.000 -0.000  0.000  0.996 -0.000
 -0.000  0.000  0.000 -0.000  0.996
   spin  2
    eigenvalues: 
  0.398  0.402  0.483  0.507  0.509
    eigenvectors:
  0.001  0.998  0.000  0.001  0.000
  0.000  0.000  0.220  0.569  0.211
  0.000  0.000  0.239  0.044  0.716
  0.999  0.001  0.000  0.000  0.000
  0.000  0.001  0.540  0.386  0.073
    occupations:
  0.402 -0.002 -0.000 -0.000  0.003
 -0.002  0.502 -0.006  0.001 -0.008
 -0.000 -0.006  0.502 -0.001 -0.009
 -0.000  0.001 -0.001  0.398  0.000
  0.003 -0.008 -0.009  0.000  0.494
atomic mag. moment =     2.683772
atom   17   Tr[ns(na)] (up, down, total) =   4.97713  1.14771  6.12483
   spin  1
    eigenvalues: 
  0.994  0.995  0.995  0.996  0.997
    eigenvectors:
  0.786  0.000  0.214  0.000  0.000
  0.212  0.010  0.777  0.000  0.001
  0.002  0.989  0.008  0.000  0.000
  0.000  0.000  0.001  0.001  0.999
  0.000  0.000  0.000  0.999  0.001
    occupations:
  0.994  0.000  0.000  0.000  0.000
  0.000  0.995  0.000  0.000 -0.000
  0.000  0.000  0.995 -0.000  0.000
  0.000  0.000 -0.000  0.997 -0.000
  0.000 -0.000  0.000 -0.000  0.996
   spin  2
    eigenvalues: 
  0.195  0.198  0.226  0.248  0.282
    eigenvectors:
  0.000  0.000  1.000  0.000  0.000
  0.013  0.984  0.000  0.003  0.000
  0.986  0.014  0.000  0.000  0.000
  0.000  0.002  0.000  0.997  0.000
  0.000  0.000  0.000  0.000  1.000
    occupations:
  0.226  0.000  0.000  0.000  0.000
  0.000  0.198  0.000  0.003  0.001
  0.000  0.000  0.195 -0.001  0.001
  0.000  0.003 -0.001  0.247  0.000
  0.000  0.001  0.001  0.000  0.282
atomic mag. moment =     3.829420
atom   18   Tr[ns(na)] (up, down, total) =   4.97687  1.14874  6.12561
   spin  1
    eigenvalues: 
  0.994  0.995  0.995  0.996  0.997
    eigenvectors:
  0.997  0.001  0.002  0.000  0.000
  0.002  0.009  0.989  0.000  0.000
  0.002  0.989  0.009  0.001  0.000
  0.000  0.000  0.000  0.000  1.000
  0.000  0.001  0.000  0.999  0.000
    occupations:
  0.994  0.000 -0.000 -0.000 -0.000
  0.000  0.995 -0.000 -0.000 -0.000
 -0.000 -0.000  0.995 -0.000  0.000
 -0.000 -0.000 -0.000  0.997  0.000
 -0.000 -0.000  0.000  0.000  0.996
   spin  2
    eigenvalues: 
  0.198  0.203  0.220  0.253  0.275
    eigenvectors:
  0.000  0.003  0.997  0.000  0.000
  0.001  0.994  0.003  0.002  0.000
  0.999  0.001  0.000  0.000  0.000
  0.000  0.002  0.000  0.998  0.000
  0.000  0.000  0.000  0.000  1.000
    occupations:
  0.220 -0.001  0.000 -0.000 -0.000
 -0.001  0.203 -0.000 -0.002  0.000
  0.000 -0.000  0.198 -0.000  0.001
 -0.000 -0.002 -0.000  0.253 -0.000
 -0.000  0.000  0.001 -0.000  0.275
atomic mag. moment =     3.828139
atom   19   Tr[ns(na)] (up, down, total) =   4.97765  1.15438  6.13202
   spin  1
    eigenvalues: 
  0.994  0.995  0.995  0.996  0.997
    eigenvectors:
  0.821  0.002  0.177  0.000  0.001
  0.178  0.000  0.822  0.000  0.000
  0.001  0.997  0.001  0.001  0.000
  0.001  0.000  0.000  0.001  0.998
  0.000  0.001  0.000  0.998  0.001
    occupations:
  0.994 -0.000 -0.000  0.000  0.000
 -0.000  0.995 -0.000  0.000 -0.000
 -0.000 -0.000  0.995  0.000 -0.000
  0.000  0.000  0.000  0.997 -0.000
  0.000 -0.000 -0.000 -0.000  0.996
   spin  2
    eigenvalues: 
  0.201  0.204  0.222  0.253  0.275
    eigenvectors:
  0.001  0.000  0.999  0.000  0.000
  0.990  0.008  0.001  0.001  0.000
  0.008  0.991  0.000  0.000  0.000
  0.001  0.000  0.000  0.998  0.000
  0.000  0.001  0.000  0.000  0.999
    occupations:
  0.222  0.000  0.000  0.001 -0.000
  0.000  0.201 -0.000 -0.002  0.002
  0.000 -0.000  0.204 -0.000 -0.002
  0.001 -0.002 -0.000  0.253 -0.000
 -0.000  0.002 -0.002 -0.000  0.275
atomic mag. moment =     3.823268
atom   20   Tr[ns(na)] (up, down, total) =   4.97464  0.96170  5.93634
   spin  1
    eigenvalues: 
  0.991  0.995  0.995  0.997  0.997
    eigenvectors:
  0.982  0.006  0.012  0.000  0.000
  0.017  0.139  0.843  0.000  0.000
  0.001  0.855  0.145  0.000  0.000
  0.000  0.000  0.000  1.000  0.000
  0.000  0.000  0.000  0.000  1.000
    occupations:
  0.992 -0.000  0.000 -0.000  0.000
 -0.000  0.995  0.000  0.000 -0.000
  0.000  0.000  0.995  0.000 -0.000
 -0.000  0.000  0.000  0.997 -0.000
  0.000 -0.000 -0.000 -0.000  0.997
   spin  2
    eigenvalues: 
  0.171  0.173  0.191  0.202  0.225
    eigenvectors:
  0.003  0.010  0.000  0.000  0.987
  0.754  0.232  0.005  0.001  0.009
  0.234  0.758  0.005  0.000  0.004
  0.009  0.001  0.990  0.001  0.000
  0.001  0.000  0.001  0.998  0.000
    occupations:
  0.224  0.005 -0.003 -0.000 -0.000
  0.005  0.172 -0.001  0.001 -0.001
 -0.003 -0.001  0.173  0.001 -0.000
 -0.000  0.001  0.001  0.191  0.000
 -0.000 -0.001 -0.000  0.000  0.202
atomic mag. moment =     4.012944
N of occupied +U levels = 135.7645274
 --- exit write_ns ---

     negative rho (up, down):  0.000E+00 0.538E-03
 --- in v_hubbard ---
Hubbard energy    0.0000
 -------

     total cpu time spent up to now is      105.6 secs

     total energy              =   -6668.19269163 Ry
     Harris-Foulkes estimate   =   -6658.46719892 Ry
     estimated scf accuracy    <      30.81976098 Ry

     total magnetization       =    67.90 Bohr mag/cell
     absolute magnetization    =    70.73 Bohr mag/cell

     iteration #  2     ecut=    95.00 Ry     beta=0.50
     Davidson diagonalization with overlap
     ethr =  9.17E-03,  avg # of iterations =  1.0
 --- enter write_ns ---
 LDA+U parameters:
U( 1)     =  0.00000000
alpha( 1) =  0.00000000
atom    1   Tr[ns(na)] (up, down, total) =   4.97910  1.65789  6.63699
   spin  1
    eigenvalues: 
  0.995  0.996  0.996  0.996  0.997
    eigenvectors:
  0.995  0.000  0.005  0.000  0.000
  0.005  0.002  0.993  0.000  0.000
  0.000  0.998  0.002  0.000  0.000
  0.000  0.000  0.000  0.001  0.999
  0.000  0.000  0.000  0.999  0.001
    occupations:
  0.995  0.000  0.000 -0.000  0.000
  0.000  0.996  0.000  0.000  0.000
  0.000  0.000  0.996  0.000  0.000
 -0.000  0.000  0.000  0.997 -0.000
  0.000  0.000  0.000 -0.000  0.996
   spin  2
    eigenvalues: 
  0.289  0.289  0.317  0.347  0.415
    eigenvectors:
  0.000  0.000  1.000  0.000  0.000
  0.525  0.475  0.000  0.000  0.000
  0.475  0.525  0.000  0.000  0.000
  0.000  0.000  0.000  1.000  0.000
  0.000  0.000  0.000  0.000  1.000
    occupations:
  0.317 -0.000  0.000  0.000 -0.000
 -0.000  0.289  0.000 -0.000 -0.000
  0.000  0.000  0.289  0.000 -0.001
  0.000 -0.000  0.000  0.347 -0.000
 -0.000 -0.000 -0.001 -0.000  0.415
atomic mag. moment =     3.321209
atom    2   Tr[ns(na)] (up, down, total) =   4.97912  1.66221  6.64134
   spin  1
    eigenvalues: 
  0.995  0.996  0.996  0.996  0.997
    eigenvectors:
  0.983  0.005  0.011  0.000  0.000
  0.017  0.411  0.572  0.000  0.000
  0.000  0.583  0.416  0.000  0.000
  0.000  0.000  0.000  0.000  1.000
  0.000  0.000  0.000  1.000  0.000
    occupations:
  0.995  0.000 -0.000  0.000  0.000
  0.000  0.996 -0.000  0.000  0.000
 -0.000 -0.000  0.996 -0.000  0.000
  0.000  0.000 -0.000  0.997 -0.000
  0.000  0.000  0.000 -0.000  0.996
   spin  2
    eigenvalues: 
  0.290  0.291  0.317  0.348  0.416
    eigenvectors:
  0.000  0.000  0.999  0.001  0.000
  0.040  0.960  0.000  0.000  0.000
  0.960  0.040  0.000  0.000  0.000
  0.000  0.000  0.001  0.999  0.000
  0.000  0.000  0.000  0.000  1.000
    occupations:
  0.317  0.000  0.000 -0.001 -0.000
  0.000  0.291 -0.000 -0.000  0.000
  0.000 -0.000  0.290 -0.000  0.000
 -0.001 -0.000 -0.000  0.348  0.000
 -0.000  0.000  0.000  0.000  0.416
atomic mag. moment =     3.316908
atom    3   Tr[ns(na)] (up, down, total) =   4.97911  1.66443  6.64354
   spin  1
    eigenvalues: 
  0.995  0.996  0.996  0.996  0.997
    eigenvectors:
  0.996  0.000  0.004  0.000  0.000
  0.004  0.002  0.994  0.000  0.000
  0.000  0.997  0.002  0.000  0.000
  0.000  0.000  0.000  0.000  1.000
  0.000  0.000  0.000  1.000  0.000
    occupations:
  0.995 -0.000  0.000 -0.000  0.000
 -0.000  0.996 -0.000 -0.000 -0.000
  0.000 -0.000  0.996  0.000 -0.000
 -0.000 -0.000  0.000  0.997 -0.000
  0.000 -0.000 -0.000 -0.000  0.996
   spin  2
    eigenvalues: 
  0.290  0.292  0.317  0.349  0.416
    eigenvectors:
  0.000  0.000  1.000  0.000  0.000
  0.995  0.005  0.000  0.000  0.000
  0.005  0.995  0.000  0.000  0.000
  0.000  0.000  0.000  1.000  0.000
  0.000  0.000  0.000  0.000  1.000
    occupations:
  0.317  0.000 -0.000  0.000  0.000
  0.000  0.290  0.000 -0.000 -0.000
 -0.000  0.000  0.292 -0.000  0.000
  0.000 -0.000 -0.000  0.349 -0.000
  0.000 -0.000  0.000 -0.000  0.416
atomic mag. moment =     3.314675
atom    4   Tr[ns(na)] (up, down, total) =   4.97917  1.66478  6.64395
   spin  1
    eigenvalues: 
  0.995  0.996  0.996  0.996  0.997
    eigenvectors:
  0.984  0.000  0.016  0.000  0.000
  0.016  0.030  0.954  0.000  0.000
  0.000  0.969  0.031  0.000  0.000
  0.000  0.000  0.000  0.001  0.999
  0.000  0.000  0.000  0.999  0.001
    occupations:
  0.995 -0.000 -0.000 -0.000 -0.000
 -0.000  0.996  0.000 -0.000  0.000
 -0.000  0.000  0.996 -0.000 -0.000
 -0.000 -0.000 -0.000  0.997  0.000
 -0.000  0.000 -0.000  0.000  0.996
   spin  2
    eigenvalues: 
  0.290  0.290  0.319  0.348  0.417
    eigenvectors:
  0.000  0.000  1.000  0.000  0.000
  0.208  0.792  0.000  0.000  0.000
  0.792  0.208  0.000  0.000  0.000
  0.000  0.000  0.000  1.000  0.000
  0.000  0.000  0.000  0.000  1.000
    occupations:
  0.319 -0.000  0.000  0.000  0.000
 -0.000  0.290 -0.000 -0.000  0.000
  0.000 -0.000  0.290  0.000  0.000
  0.000 -0.000  0.000  0.348  0.000
  0.000  0.000  0.000  0.000  0.417
atomic mag. moment =     3.314383
atom    5   Tr[ns(na)] (up, down, total) =   4.95120  2.14265  7.09384
   spin  1
    eigenvalues: 
  0.989  0.990  0.990  0.991  0.992
    eigenvectors:
  0.003  0.000  0.000  0.001  0.996
  0.565  0.000  0.432  0.000  0.002
  0.388  0.088  0.523  0.000  0.001
  0.044  0.911  0.044  0.000  0.001
  0.000  0.000  0.000  0.999  0.001
    occupations:
  0.992  0.000  0.000 -0.000 -0.000
  0.000  0.989 -0.000  0.000  0.000
  0.000 -0.000  0.990 -0.000  0.000
 -0.000  0.000 -0.000  0.990  0.000
 -0.000  0.000  0.000  0.000  0.991
   spin  2
    eigenvalues: 
  0.347  0.365  0.477  0.477  0.477
    eigenvectors:
  0.000  1.000  0.000  0.000  0.000
  0.000  0.000  0.000  0.564  0.436
  0.000  0.000  0.014  0.431  0.554
  1.000  0.000  0.000  0.000  0.000
  0.000  0.000  0.985  0.005  0.009
    occupations:
  0.365  0.000 -0.000 -0.000  0.001
  0.000  0.477 -0.000 -0.000 -0.000
 -0.000 -0.000  0.477  0.000  0.000
 -0.000 -0.000  0.000  0.347 -0.000
  0.001 -0.000  0.000 -0.000  0.477
atomic mag. moment =     2.808552
atom    6   Tr[ns(na)] (up, down, total) =   4.95122  2.14143  7.09265
   spin  1
    eigenvalues: 
  0.989  0.989  0.990  0.991  0.992
    eigenvectors:
  0.003  0.000  0.000  0.001  0.996
  0.436  0.023  0.540  0.000  0.001
  0.479  0.064  0.457  0.000  0.001
  0.082  0.913  0.004  0.000  0.001
  0.000  0.000  0.000  0.999  0.001
    occupations:
  0.992  0.000 -0.000 -0.000  0.000
  0.000  0.990  0.000  0.000  0.000
 -0.000  0.000  0.990 -0.000 -0.000
 -0.000  0.000 -0.000  0.989  0.000
  0.000  0.000 -0.000  0.000  0.991
   spin  2
    eigenvalues: 
  0.347  0.364  0.477  0.477  0.477
    eigenvectors:
  0.000  1.000  0.000  0.000  0.000
  0.000  0.000  0.508  0.483  0.009
  0.000  0.000  0.118  0.053  0.829
  1.000  0.000  0.000  0.000  0.000
  0.000  0.000  0.373  0.465  0.162
    occupations:
  0.364  0.000  0.000  0.000 -0.001
  0.000  0.477  0.000 -0.000 -0.000
  0.000  0.000  0.477 -0.000  0.000
  0.000 -0.000 -0.000  0.347 -0.000
 -0.001 -0.000  0.000 -0.000  0.477
atomic mag. moment =     2.809792
atom    7   Tr[ns(na)] (up, down, total) =   4.95111  2.14275  7.09386
   spin  1
    eigenvalues: 
  0.989  0.989  0.990  0.991  0.992
    eigenvectors:
  0.003  0.001  0.000  0.001  0.995
  0.566  0.005  0.426  0.001  0.002
  0.430  0.004  0.565  0.000  0.001
  0.000  0.990  0.008  0.000  0.001
  0.001  0.000  0.000  0.997  0.002
    occupations:
  0.992 -0.000  0.000  0.000  0.000
 -0.000  0.989  0.000 -0.000  0.000
  0.000  0.000  0.989 -0.000  0.000
  0.000 -0.000 -0.000  0.989 -0.000
  0.000  0.000  0.000 -0.000  0.991
   spin  2
    eigenvalues: 
  0.347  0.365  0.477  0.477  0.477
    eigenvectors:
  0.000  1.000  0.000  0.000  0.000
  0.000  0.000  0.001  0.327  0.672
  0.000  0.000  0.255  0.515  0.230
  1.000  0.000  0.000  0.000  0.000
  0.000  0.000  0.744  0.158  0.098
    occupations:
  0.365 -0.000 -0.000  0.000 -0.001
 -0.000  0.477  0.000  0.000  0.000
 -0.000  0.000  0.477  0.000  0.000
  0.000  0.000  0.000  0.347  0.000
 -0.001  0.000  0.000  0.000  0.477
atomic mag. moment =     2.808357
atom    8   Tr[ns(na)] (up, down, total) =   4.95114  2.14283  7.09396
   spin  1
    eigenvalues: 
  0.989  0.989  0.990  0.991  0.992
    eigenvectors:
  0.002  0.001  0.000  0.001  0.996
  0.430  0.065  0.503  0.000  0.001
  0.567  0.063  0.369  0.000  0.001
  0.001  0.872  0.127  0.000  0.001
  0.000  0.000  0.000  0.999  0.001
    occupations:
  0.992 -0.000 -0.000  0.000 -0.000
 -0.000  0.989 -0.000 -0.000 -0.000
 -0.000 -0.000  0.989  0.000  0.000
  0.000 -0.000  0.000  0.989 -0.000
 -0.000 -0.000  0.000 -0.000  0.991
   spin  2
    eigenvalues: 
  0.347  0.365  0.476  0.477  0.478
    eigenvectors:
  0.000  1.000  0.000  0.000  0.000
  0.000  0.000  0.067  0.576  0.357
  0.000  0.000  0.014  0.347  0.639
  1.000  0.000  0.000  0.000  0.000
  0.000  0.000  0.919  0.077  0.004
    occupations:
  0.365  0.000 -0.000 -0.000  0.000
  0.000  0.477 -0.000  0.000 -0.000
 -0.000 -0.000  0.478 -0.000 -0.000
 -0.000  0.000 -0.000  0.347  0.000
  0.000 -0.000 -0.000  0.000  0.477
atomic mag. moment =     2.808311
atom    9   Tr[ns(na)] (up, down, total) =   4.95316  2.15799  7.11115
   spin  1
    eigenvalues: 
  0.989  0.990  0.990  0.991  0.994
    eigenvectors:
  0.000  0.000  0.000  0.000  1.000
  0.021  0.000  0.978  0.001  0.000
  0.024  0.974  0.001  0.000  0.000
  0.000  0.000  0.001  0.999  0.000
  0.955  0.025  0.020  0.000  0.000
    occupations:
  0.994 -0.000 -0.000 -0.000 -0.000
 -0.000  0.990  0.000 -0.000  0.000
 -0.000  0.000  0.990 -0.000 -0.000
 -0.000 -0.000 -0.000  0.991  0.000
 -0.000  0.000 -0.000  0.000  0.989
   spin  2
    eigenvalues: 
  0.350  0.392  0.471  0.472  0.473
    eigenvectors:
  1.000  0.000  0.000  0.000  0.000
  0.000  0.000  0.561  0.397  0.042
  0.000  0.000  0.428  0.565  0.006
  0.000  1.000  0.000  0.000  0.000
  0.000  0.000  0.011  0.038  0.952
    occupations:
  0.350  0.000  0.000  0.000 -0.000
  0.000  0.472 -0.001  0.000 -0.000
  0.000 -0.001  0.472  0.000 -0.000
  0.000  0.000  0.000  0.392 -0.000
 -0.000 -0.000 -0.000 -0.000  0.473
atomic mag. moment =     2.795175
atom   10   Tr[ns(na)] (up, down, total) =   4.95274  2.16172  7.11446
   spin  1
    eigenvalues: 
  0.989  0.990  0.990  0.990  0.994
    eigenvectors:
  0.000  0.000  0.000  0.000  1.000
  0.001  0.008  0.989  0.002  0.000
  0.017  0.976  0.007  0.000  0.000
  0.000  0.000  0.002  0.998  0.000
  0.982  0.016  0.002  0.000  0.000
    occupations:
  0.994 -0.000  0.000  0.000  0.000
 -0.000  0.990  0.000  0.000 -0.000
  0.000  0.000  0.990  0.000 -0.000
  0.000  0.000  0.000  0.990  0.000
  0.000 -0.000 -0.000  0.000  0.989
   spin  2
    eigenvalues: 
  0.346  0.391  0.474  0.475  0.476
    eigenvectors:
  1.000  0.000  0.000  0.000  0.000
  0.000  0.000  0.009  0.988  0.003
  0.000  0.000  0.976  0.010  0.014
  0.000  1.000  0.000  0.000  0.000
  0.000  0.000  0.015  0.002  0.983
    occupations:
  0.346 -0.000 -0.000 -0.000 -0.000
 -0.000  0.475 -0.000 -0.000 -0.000
 -0.000 -0.000  0.474 -0.000 -0.000
 -0.000 -0.000 -0.000  0.391  0.000
 -0.000 -0.000 -0.000  0.000  0.476
atomic mag. moment =     2.791025
atom   11   Tr[ns(na)] (up, down, total) =   4.95284  2.16422  7.11707
   spin  1
    eigenvalues: 
  0.989  0.990  0.990  0.990  0.994
    eigenvectors:
  0.000  0.000  0.000  0.000  1.000
  0.005  0.981  0.013  0.000  0.000
  0.001  0.013  0.986  0.001  0.000
  0.000  0.000  0.001  0.999  0.000
  0.994  0.006  0.000  0.000  0.000
    occupations:
  0.994  0.000  0.000 -0.000  0.000
  0.000  0.990  0.000 -0.000  0.000
  0.000  0.000  0.990  0.000 -0.000
 -0.000 -0.000  0.000  0.990 -0.000
  0.000  0.000 -0.000 -0.000  0.989
   spin  2
    eigenvalues: 
  0.346  0.391  0.475  0.476  0.477
    eigenvectors:
  1.000  0.000  0.000  0.000  0.000
  0.000  0.000  0.853  0.067  0.079
  0.000  0.000  0.091  0.895  0.014
  0.000  1.000  0.000  0.000  0.000
  0.000  0.000  0.056  0.038  0.907
    occupations:
  0.346 -0.000 -0.000  0.000 -0.000
 -0.000  0.475  0.000  0.000 -0.001
 -0.000  0.000  0.476 -0.000 -0.000
  0.000  0.000 -0.000  0.391  0.000
 -0.000 -0.001 -0.000  0.000  0.477
atomic mag. moment =     2.788618
atom   12   Tr[ns(na)] (up, down, total) =   4.95220  2.17453  7.12672
   spin  1
    eigenvalues: 
  0.989  0.989  0.989  0.990  0.994
    eigenvectors:
  0.000  0.000  0.000  0.000  1.000
  0.858  0.001  0.141  0.000  0.000
  0.140  0.001  0.859  0.000  0.000
  0.000  0.000  0.000  1.000  0.000
  0.002  0.998  0.000  0.000  0.000
    occupations:
  0.994 -0.000  0.000 -0.000 -0.000
 -0.000  0.989  0.000  0.000  0.000
  0.000  0.000  0.989 -0.000  0.000
 -0.000  0.000 -0.000  0.990 -0.000
 -0.000  0.000  0.000 -0.000  0.989
   spin  2
    eigenvalues: 
  0.337  0.388  0.482  0.484  0.484
    eigenvectors:
  1.000  0.000  0.000  0.000  0.000
  0.000  0.000  0.011  0.962  0.027
  0.000  0.000  0.006  0.025  0.969
  0.000  1.000  0.000  0.000  0.000
  0.000  0.000  0.983  0.013  0.004
    occupations:
  0.337  0.000  0.000 -0.000  0.000
  0.000  0.484  0.000  0.000  0.000
  0.000  0.000  0.484  0.000 -0.000
 -0.000  0.000  0.000  0.388  0.000
  0.000  0.000 -0.000  0.000  0.482
atomic mag. moment =     2.777671
atom   13   Tr[ns(na)] (up, down, total) =   4.95139  2.13453  7.08592
   spin  1
    eigenvalues: 
[...]
     atom    3 type  1   force =     0.00009259    0.00004321    0.00369057
     atom    4 type  1   force =     0.00002627   -0.00004645    0.00333283
     atom    5 type  1   force =     0.00000099    0.00004607   -0.00692118
     atom    6 type  1   force =     0.00004787   -0.00007635   -0.00678915
     atom    7 type  1   force =     0.00008696    0.00002049   -0.00683749
     atom    8 type  1   force =     0.00001610   -0.00008730   -0.00682535
     atom    9 type  1   force =     0.00031296   -0.00004742    0.00202360
     atom   10 type  1   force =    -0.00060329    0.00019587    0.00296981
     atom   11 type  1   force =    -0.00046505   -0.00022569    0.00300700
     atom   12 type  1   force =     0.00033667    0.00011695    0.00498963
     atom   13 type  1   force =     0.00005014   -0.00004075   -0.00002578
     atom   14 type  1   force =    -0.00001821   -0.00007266    0.00004046
     atom   15 type  1   force =     0.00008093    0.00007054    0.00001337
     atom   16 type  1   force =     0.00005484   -0.00000095    0.00004699
     atom   17 type  1   force =     0.00002110   -0.00000474   -0.00000844
     atom   18 type  1   force =     0.00001268    0.00003305    0.00009197
     atom   19 type  1   force =     0.00000584   -0.00006832    0.00001108
     atom   20 type  1   force =    -0.00008431   -0.00004572    0.00003549
     atom   21 type  2   force =    -0.00000230    0.00008320   -0.00000405
     atom   22 type  3   force =    -0.00003909    0.00007085    0.00000946
     atom   23 type  3   force =     0.00002311    0.00003494   -0.00001942
     atom   24 type  2   force =     0.00002432    0.00003828   -0.00006289
     atom   25 type  3   force =     0.00005961    0.00000162   -0.00001425
     atom   26 type  3   force =     0.00002443   -0.00002819   -0.00001783
     The non-local contrib.  to forces
     atom    1 type  1   force =    -0.00013487    0.00007691   -0.39068012
     atom    2 type  1   force =     0.00022905   -0.00005022   -0.38901737
     atom    3 type  1   force =     0.00003199   -0.00028713   -0.38772821
     atom    4 type  1   force =    -0.00010589    0.00024981   -0.38604546
     atom    5 type  1   force =    -0.00053363   -0.00059755   -0.03446383
     atom    6 type  1   force =    -0.00092117    0.00068191   -0.03437587
     atom    7 type  1   force =     0.00056649   -0.00026979   -0.03399926
     atom    8 type  1   force =     0.00092815    0.00026869   -0.03382569
     atom    9 type  1   force =     0.00028247   -0.00005692   -0.00827869
     atom   10 type  1   force =    -0.00019380    0.00019138   -0.00339971
     atom   11 type  1   force =     0.00068581    0.00032509   -0.00243108
     atom   12 type  1   force =    -0.00031653   -0.00038880    0.00782622
     atom   13 type  1   force =    -0.01510534   -0.01418806    0.02770983
     atom   14 type  1   force =    -0.01444630    0.01330409    0.02805588
     atom   15 type  1   force =     0.01619541   -0.01361871    0.03188684
     atom   16 type  1   force =     0.01602142    0.01265352    0.03202542
     atom   17 type  1   force =     0.00984387    0.00170078    0.31675800
     atom   18 type  1   force =     0.00404690   -0.00006241    0.35736426
     atom   19 type  1   force =     0.00017384   -0.00969113    0.38993544
     atom   20 type  1   force =    -0.00224338    0.00250954    0.37236154
     atom   21 type  2   force =    -0.02169762    1.66891116   -1.25215671
     atom   22 type  3   force =     0.04964054   -0.09380091   -0.01365897
     atom   23 type  3   force =    -0.05792758   -0.01058408    0.08054665
     atom   24 type  2   force =    -1.25291869    1.45786231    0.43488351
     atom   25 type  3   force =    -0.03327859   -0.08501991   -0.02947798
     atom   26 type  3   force =     0.10578978    0.00069622   -0.01354164
     The ionic contribution  to forces
     atom    1 type  1   force =     0.00523431   -0.00361235 -261.13962251
     atom    2 type  1   force =     0.00369986    0.00360816 -261.15614937
     atom    3 type  1   force =    -0.00523442   -0.00351687 -261.16102940
     atom    4 type  1   force =    -0.00367702    0.00351449 -261.16540650
     atom    5 type  1   force =    -0.04600305   -0.03542486 -143.33806589
     atom    6 type  1   force =    -0.04604773    0.03462822 -143.31406958
     atom    7 type  1   force =     0.04527862   -0.01981346 -143.39251557
     atom    8 type  1   force =     0.04695033    0.02148547 -143.33814225
     atom    9 type  1   force =     0.13134958   -0.07481625  -10.96659471
     atom   10 type  1   force =     0.03889783    0.06706444  -11.30443243
     atom   11 type  1   force =    -0.14333641   -0.06854876  -11.44905695
     atom   12 type  1   force =    -0.02545337    0.06297575  -10.72606710
     atom   13 type  1   force =     0.06026476    0.48161593  121.98624758
     atom   14 type  1   force =     0.13993792   -0.49428235  122.09634229
     atom   15 type  1   force =    -0.12943588    0.45731610  121.34006557
     atom   16 type  1   force =    -0.16877628   -0.40978765  121.62164069
     atom   17 type  1   force =     0.98768262    0.18048660  239.47724305
     atom   18 type  1   force =     0.67218234   -0.20290759  239.94842755
     atom   19 type  1   force =    -1.18551306    0.29315325  237.09667165
     atom   20 type  1   force =    -0.09321646   -0.56748465  237.54964782
     atom   21 type  2   force =     1.34710854   -1.67412946   78.48275713
     atom   22 type  3   force =    -1.55352763    2.92529538   12.87273351
     atom   23 type  3   force =     2.29557246    0.45800183   12.33748332
     atom   24 type  2   force =     0.73465555   -3.52193208   88.29976854
     atom   25 type  3   force =     0.73552395    2.19028893   14.60844268
     atom   26 type  3   force =    -3.84411734   -0.10317821   14.73368086
     The local contribution  to forces
     atom    1 type  1   force =    -0.00514296    0.00355687  261.54655150
     atom    2 type  1   force =    -0.00394483   -0.00359032  261.56181771
     atom    3 type  1   force =     0.00527919    0.00383606  261.56532057
     atom    4 type  1   force =     0.00382075   -0.00381449  261.56778541
     atom    5 type  1   force =     0.04646715    0.03603877  143.36601094
     atom    6 type  1   force =     0.04693177   -0.03533289  143.34207929
     atom    7 type  1   force =    -0.04570919    0.02005652  143.42004926
     atom    8 type  1   force =    -0.04780170   -0.02176393  143.36554922
     atom    9 type  1   force =    -0.13139418    0.07484741   10.97646442
     atom   10 type  1   force =    -0.03921263   -0.06705279   11.31060286
     atom   11 type  1   force =     0.14219128    0.06800012   11.45422679
     atom   12 type  1   force =     0.02609181   -0.06245541   10.72344254
     atom   13 type  1   force =    -0.04517415   -0.46759525 -122.01390764
     atom   14 type  1   force =    -0.12566472    0.48110765 -122.12434437
     atom   15 type  1   force =     0.11353454   -0.44376591 -121.37202401
     atom   16 type  1   force =     0.15298761    0.39716993 -121.65365671
     atom   17 type  1   force =    -0.99820693   -0.18234849 -239.80526004
     atom   18 type  1   force =    -0.67584891    0.20308785 -240.31748276
     atom   19 type  1   force =     1.18565875   -0.28345721 -237.49831593
     atom   20 type  1   force =     0.09565308    0.56466768 -237.93891915
     atom   21 type  2   force =    -1.32582827    0.02150195  -77.24249128
     atom   22 type  3   force =     1.50384914   -2.83142467  -12.85904804
     atom   23 type  3   force =    -2.23762020   -0.44738233  -12.41803290
     atom   24 type  2   force =     0.50615367    2.07799483  -88.73066434
     atom   25 type  3   force =    -0.70218393   -2.10526383  -14.57896110
     atom   26 type  3   force =     3.73834681    0.10245323  -14.72014070
     The core correction contribution to forces
     atom    1 type  1   force =    -0.00000645   -0.00000368   -0.01271100
     atom    2 type  1   force =     0.00000084    0.00000359   -0.01281154
     atom    3 type  1   force =     0.00001602    0.00000970   -0.01282200
     atom    4 type  1   force =    -0.00001166    0.00000424   -0.01295160
     atom    5 type  1   force =     0.00004319    0.00001585   -0.00036137
     atom    6 type  1   force =     0.00005759   -0.00003990   -0.00038454
     atom    7 type  1   force =    -0.00002131    0.00003258   -0.00033782
     atom    8 type  1   force =    -0.00003325   -0.00006326   -0.00036687
     atom    9 type  1   force =     0.00007884   -0.00002529    0.00049479
     atom   10 type  1   force =    -0.00009043   -0.00000365    0.00026866
     atom   11 type  1   force =    -0.00000892   -0.00000587    0.00033707
     atom   12 type  1   force =     0.00001051   -0.00001150   -0.00014238
     atom   13 type  1   force =     0.00004644    0.00012128    0.00002598
     atom   14 type  1   force =     0.00013596   -0.00019760    0.00008635
     atom   15 type  1   force =    -0.00019446    0.00013462    0.00018926
     atom   16 type  1   force =    -0.00015863   -0.00003292    0.00013860
     atom   17 type  1   force =     0.00070130    0.00015505    0.01131896
     atom   18 type  1   force =    -0.00036297   -0.00008289    0.01185775
     atom   19 type  1   force =    -0.00031459   -0.00007284    0.01179129
     atom   20 type  1   force =    -0.00027735    0.00026028    0.01697218
     atom   21 type  2   force =     0.00042775   -0.01618967    0.01192613
     atom   22 type  3   force =     0.00000000    0.00000000    0.00000000
     atom   23 type  3   force =     0.00000000    0.00000000    0.00000000
     atom   24 type  2   force =     0.01213280   -0.01389225   -0.00402646
     atom   25 type  3   force =     0.00000000    0.00000000    0.00000000
     atom   26 type  3   force =     0.00000000    0.00000000    0.00000000
     The Hubbard contrib.    to forces
     atom    1 type  1   force =     0.00000000   -0.00000000   -0.00000000
     atom    2 type  1   force =    -0.00000000    0.00000000   -0.00000000
     atom    3 type  1   force =     0.00000000    0.00000000   -0.00000000
     atom    4 type  1   force =     0.00000000   -0.00000000   -0.00000000
     atom    5 type  1   force =     0.00000000    0.00000000   -0.00000000
     atom    6 type  1   force =     0.00000000   -0.00000000   -0.00000000
     atom    7 type  1   force =    -0.00000000    0.00000000   -0.00000000
     atom    8 type  1   force =    -0.00000000   -0.00000000   -0.00000000
     atom    9 type  1   force =    -0.00000000    0.00000000   -0.00000000
     atom   10 type  1   force =     0.00000000   -0.00000000   -0.00000000
     atom   11 type  1   force =     0.00000000    0.00000000   -0.00000000
     atom   12 type  1   force =    -0.00000000   -0.00000000   -0.00000000
     atom   13 type  1   force =    -0.00000000   -0.00000000    0.00000000
     atom   14 type  1   force =    -0.00000000    0.00000000    0.00000000
     atom   15 type  1   force =     0.00000000   -0.00000000    0.00000000
     atom   16 type  1   force =     0.00000000    0.00000000    0.00000000
     atom   17 type  1   force =     0.00000000   -0.00000000    0.00000000
     atom   18 type  1   force =     0.00000000    0.00000000    0.00000000
     atom   19 type  1   force =    -0.00000000   -0.00000000    0.00000000
     atom   20 type  1   force =     0.00000000   -0.00000000    0.00000000
     atom   21 type  2   force =     0.00000000    0.00000000   -0.00000000
     atom   22 type  3   force =    -0.00000000    0.00000000    0.00000000
     atom   23 type  3   force =     0.00000000    0.00000000   -0.00000000
     atom   24 type  2   force =    -0.00000000   -0.00000000   -0.00000000
     atom   25 type  3   force =     0.00000000    0.00000000    0.00000000
     atom   26 type  3   force =    -0.00000000   -0.00000000   -0.00000000
     The SCF correction term to forces
     atom    1 type  1   force =     0.00000000    0.00000000    0.00000000
     atom    2 type  1   force =     0.00000000    0.00000000    0.00000000
     atom    3 type  1   force =     0.00000000    0.00000000    0.00000000
     atom    4 type  1   force =     0.00000000    0.00000000    0.00000000
     atom    5 type  1   force =     0.00000000    0.00000000    0.00000000
     atom    6 type  1   force =     0.00000000    0.00000000    0.00000000
     atom    7 type  1   force =     0.00000000    0.00000000    0.00000000
     atom    8 type  1   force =     0.00000000    0.00000000    0.00000000
     atom    9 type  1   force =     0.00000000    0.00000000    0.00000000
     atom   10 type  1   force =     0.00000000    0.00000000    0.00000000
     atom   11 type  1   force =     0.00000000    0.00000000    0.00000000
     atom   12 type  1   force =     0.00000000    0.00000000    0.00000000
     atom   13 type  1   force =     0.00001846    0.00000514   -0.00008735
     atom   14 type  1   force =     0.00001897   -0.00000467   -0.00008551
     atom   15 type  1   force =    -0.00001863    0.00000422   -0.00009012
     atom   16 type  1   force =    -0.00001923   -0.00000404   -0.00008683
     atom   17 type  1   force =     0.00000028    0.00000110   -0.00005424
     atom   18 type  1   force =    -0.00000463   -0.00000212   -0.00006065
     atom   19 type  1   force =     0.00000095   -0.00000060   -0.00005720
     atom   20 type  1   force =    -0.00000017    0.00000122   -0.00001272
     atom   21 type  2   force =    -0.00001265   -0.00001099   -0.00002513
     atom   22 type  3   force =    -0.00000110    0.00000084   -0.00000287
     atom   23 type  3   force =    -0.00000154   -0.00000068   -0.00000232
     atom   24 type  2   force =     0.00000103    0.00000525   -0.00000996
     atom   25 type  3   force =    -0.00000179   -0.00000379   -0.00000367
     atom   26 type  3   force =     0.00000521    0.00000035   -0.00000218

     Total force =     0.000286     Total SCF correction =     0.000208
     SCF correction compared to forces is large: reduce conv_thr to get better values


     entering subroutine stress ...


     negative rho (up, down):  0.106E-04 0.125E-02
          total   stress  (Ry/bohr**3)                   (kbar)     P=  -14.43
  -0.00013869  -0.00000036   0.00000021        -20.40     -0.05      0.03
  -0.00000036  -0.00015662   0.00000037         -0.05    -23.04      0.05
   0.00000021   0.00000037   0.00000102          0.03      0.05      0.15

     kinetic stress (kbar)  32701.29      3.57     44.29
                                3.57  32707.16    -21.57
                               44.29    -21.57  32652.45

     local   stress (kbar)-822875.49   -177.15     60.64
                             -177.15-824137.85   -215.07
                               60.64   -215.07 871637.89

     nonloc. stress (kbar) -24621.75      0.97      2.87
                                0.97 -24621.37     -1.03
                                2.87     -1.03 -24543.67

     hartree stress (kbar) 436831.20     75.54      4.10
                               75.54 437414.73     78.94
                                4.10     78.94-401018.88

     exc-cor stress (kbar)  -1199.42      0.19     -0.58
                                0.19  -1198.93      0.40
                               -0.58      0.40  -1205.20

     corecor stress (kbar)  -6614.48     -0.02     -0.10
                               -0.02  -6614.44      0.04
                               -0.10      0.04  -6613.25

     ewald   stress (kbar) 385758.25     96.85   -111.19
                               96.85 386427.67    158.34
                             -111.19    158.34-470909.19

     hubbard stress (kbar)     -0.00     -0.00     -0.00
                               -0.00     -0.00      0.00
                               -0.00      0.00     -0.00

     london  stress (kbar)      0.00      0.00      0.00
                                0.00      0.00      0.00
                                0.00      0.00      0.00

     dft-nl  stress (kbar)      0.00      0.00      0.00
                                0.00      0.00      0.00
                                0.00      0.00      0.00



     Writing output data file Fe_100_2x2_H2O_top_5ML.save
 
     init_run     :     47.60s CPU     56.33s WALL (       1 calls)
     electrons    :    978.37s CPU   1151.37s WALL (       1 calls)
     forces       :     40.64s CPU     41.21s WALL (       1 calls)
     stress       :    194.21s CPU    198.18s WALL (       1 calls)

     Called by init_run:
     wfcinit      :     15.38s CPU     20.84s WALL (       1 calls)
     potinit      :      1.39s CPU      1.41s WALL (       1 calls)

     Called by electrons:
     c_bands      :    542.73s CPU    560.78s WALL (      29 calls)
     sum_band     :    235.69s CPU    247.45s WALL (      29 calls)
     v_of_rho     :     10.01s CPU     10.03s WALL (      30 calls)
     v_h          :      0.44s CPU      0.44s WALL (      30 calls)
     v_xc         :     10.21s CPU     10.24s WALL (      32 calls)
     newd         :    115.46s CPU    115.54s WALL (      30 calls)
     mix_rho      :     60.80s CPU     60.94s WALL (      29 calls)

     Called by c_bands:
     init_us_2    :      3.32s CPU      3.28s WALL (     360 calls)
     cegterg      :    492.44s CPU    494.68s WALL (     145 calls)

     Called by sum_band:
     sum_band:bec :      0.34s CPU      0.31s WALL (     145 calls)
     addusdens    :    149.78s CPU    149.87s WALL (      29 calls)

     Called by *egterg:
     h_psi        :    339.96s CPU    340.81s WALL (     603 calls)
     s_psi        :     31.50s CPU     31.57s WALL (     658 calls)
     g_psi        :      0.74s CPU      0.72s WALL (     453 calls)
     cdiaghg      :     49.56s CPU     49.81s WALL (     598 calls)
     cegterg:over :     29.27s CPU     29.23s WALL (     453 calls)
     cegterg:upda :     25.08s CPU     25.18s WALL (     453 calls)
     cegterg:last :     15.25s CPU     15.24s WALL (     145 calls)
     cdiaghg:chol :      2.48s CPU      2.47s WALL (     598 calls)
     cdiaghg:inve :      2.45s CPU      2.50s WALL (     598 calls)
     cdiaghg:para :      6.10s CPU      6.12s WALL (    1196 calls)

     Called by h_psi:
     h_psi:vloc   :    201.52s CPU    202.05s WALL (     603 calls)
     h_psi:vnl    :     57.43s CPU     57.59s WALL (     603 calls)
     add_vuspsi   :     27.29s CPU     27.33s WALL (     603 calls)
     vhpsi        :     79.62s CPU     79.78s WALL (     603 calls)

     General routines
     calbec       :    103.85s CPU    104.07s WALL (    2826 calls)
     fft          :     12.58s CPU     12.57s WALL (     964 calls)
     ffts         :     28.02s CPU     28.30s WALL (   11522 calls)
     fftw         :    214.56s CPU    214.97s WALL (   77715 calls)
     interpolate  :      1.66s CPU      1.65s WALL (     118 calls)
     davcio       :      7.10s CPU     44.07s WALL (    1055 calls)
 
     Parallel routines
     fft_scatter  :    112.56s CPU    113.12s WALL (   90201 calls)
     ALLTOALL     :      4.85s CPU      4.88s WALL (   77519 calls)
     Hubbard U routines
     new_ns       :     10.80s CPU     18.98s WALL (      29 calls)
     vhpsi        :     79.62s CPU     79.78s WALL (     603 calls)
     force_hub    :     13.73s CPU     14.18s WALL (       1 calls)
     stres_hub    :    119.95s CPU    123.80s WALL (       1 calls)
 
     PAW routines
     PAW_pot      :      5.30s CPU      5.33s WALL (      30 calls)
     PAW_ddot     :      6.38s CPU      6.39s WALL (    1021 calls)
 
     PWSCF        : 21m16.55s CPU    24m40.61s WALL

 
   This run was terminated on:  11:20:41  14Dec2015            

=------------------------------------------------------------------------------=
   JOB DONE.
=------------------------------------------------------------------------------=
Application 19409687 resources: utime ~137255s, stime ~4035s, Rss ~347104, inblocks ~6427409001, outblocks ~1028945328
