
     Program PROJWFC v.5.0.2 (svn rev. 9656) starts on 14Dec2015 at 11:20:52 

     This program is part of the open-source Quantum ESPRESSO suite
     for quantum simulation of materials; please cite
         "P. Giannozzi et al., J. Phys.:Condens. Matter 21 395502 (2009);
          URL http://www.quantum-espresso.org", 
     in publications or presentations arising from this work. More details at
     http://www.quantum-espresso.org/quote.php

     Parallel version (MPI & OpenMP), running on      96 processor cores
     Number of MPI processes:                96
     Threads/MPI process:                     1
     K-points division:     npool     =       4
     R & G space division:  proc/nbgrp/npool/nimage =      24

   Info: using nr1, nr2, nr3 values from input

   Info: using nr1s, nr2s, nr3s values from input

     IMPORTANT: XC functional enforced from input :
     Exchange-correlation      = PBE ( 1 4 3 4 0)
     EXX-fraction              =        0.00
     Any further DFT definition will be discarded
     Please, verify this is what you really want

               file Fe.pbe-spn-kjpaw_psl.0.2.1.UPF: wavefunction(s)  3D renormalized
               file O.pbe-n-kjpaw_psl.0.1.UPF: wavefunction(s)  2P renormalized
               file H.pbe-kjpaw_psl.0.1.upf: wavefunction(s)  1S renormalized
 
     Parallelization info
     --------------------
     sticks:   dense  smooth     PW     G-vecs:    dense   smooth      PW
     Min         304     144     39                62058    20304    2879
     Max         305     145     40                62067    20339    2890
     Sum        7305    3457    949              1489451   487579   69203
 

     Check: negative/imaginary core charge=   -0.000011    0.000000

     negative rho (up, down):  0.106E-04 0.125E-02

     Gaussian broadening (read from input): ngauss,degauss=   0    0.010000


     Calling pprojwave .... 
 
  Problem Sizes 
  natomwfc =          272
  nbnd     =          202
  nkstot   =           20
  npwx     =         2579
  nkb      =          384
 

     Atomic states used for projection
     (read from pseudopotential files):

     state #   1: atom   1 (Fe ), wfc  1 (l=0 m= 1)
     state #   2: atom   1 (Fe ), wfc  2 (l=0 m= 1)
     state #   3: atom   1 (Fe ), wfc  3 (l=1 m= 1)
     state #   4: atom   1 (Fe ), wfc  3 (l=1 m= 2)
     state #   5: atom   1 (Fe ), wfc  3 (l=1 m= 3)
     state #   6: atom   1 (Fe ), wfc  4 (l=1 m= 1)
     state #   7: atom   1 (Fe ), wfc  4 (l=1 m= 2)
     state #   8: atom   1 (Fe ), wfc  4 (l=1 m= 3)
     state #   9: atom   1 (Fe ), wfc  5 (l=2 m= 1)
     state #  10: atom   1 (Fe ), wfc  5 (l=2 m= 2)
     state #  11: atom   1 (Fe ), wfc  5 (l=2 m= 3)
     state #  12: atom   1 (Fe ), wfc  5 (l=2 m= 4)
     state #  13: atom   1 (Fe ), wfc  5 (l=2 m= 5)
     state #  14: atom   2 (Fe ), wfc  1 (l=0 m= 1)
     state #  15: atom   2 (Fe ), wfc  2 (l=0 m= 1)
     state #  16: atom   2 (Fe ), wfc  3 (l=1 m= 1)
     state #  17: atom   2 (Fe ), wfc  3 (l=1 m= 2)
     state #  18: atom   2 (Fe ), wfc  3 (l=1 m= 3)
     state #  19: atom   2 (Fe ), wfc  4 (l=1 m= 1)
     state #  20: atom   2 (Fe ), wfc  4 (l=1 m= 2)
     state #  21: atom   2 (Fe ), wfc  4 (l=1 m= 3)
     state #  22: atom   2 (Fe ), wfc  5 (l=2 m= 1)
     state #  23: atom   2 (Fe ), wfc  5 (l=2 m= 2)
     state #  24: atom   2 (Fe ), wfc  5 (l=2 m= 3)
     state #  25: atom   2 (Fe ), wfc  5 (l=2 m= 4)
     state #  26: atom   2 (Fe ), wfc  5 (l=2 m= 5)
     state #  27: atom   3 (Fe ), wfc  1 (l=0 m= 1)
     state #  28: atom   3 (Fe ), wfc  2 (l=0 m= 1)
     state #  29: atom   3 (Fe ), wfc  3 (l=1 m= 1)
     state #  30: atom   3 (Fe ), wfc  3 (l=1 m= 2)
     state #  31: atom   3 (Fe ), wfc  3 (l=1 m= 3)
     state #  32: atom   3 (Fe ), wfc  4 (l=1 m= 1)
     state #  33: atom   3 (Fe ), wfc  4 (l=1 m= 2)
     state #  34: atom   3 (Fe ), wfc  4 (l=1 m= 3)
     state #  35: atom   3 (Fe ), wfc  5 (l=2 m= 1)
     state #  36: atom   3 (Fe ), wfc  5 (l=2 m= 2)
     state #  37: atom   3 (Fe ), wfc  5 (l=2 m= 3)
     state #  38: atom   3 (Fe ), wfc  5 (l=2 m= 4)
     state #  39: atom   3 (Fe ), wfc  5 (l=2 m= 5)
     state #  40: atom   4 (Fe ), wfc  1 (l=0 m= 1)
     state #  41: atom   4 (Fe ), wfc  2 (l=0 m= 1)
     state #  42: atom   4 (Fe ), wfc  3 (l=1 m= 1)
     state #  43: atom   4 (Fe ), wfc  3 (l=1 m= 2)
     state #  44: atom   4 (Fe ), wfc  3 (l=1 m= 3)
     state #  45: atom   4 (Fe ), wfc  4 (l=1 m= 1)
     state #  46: atom   4 (Fe ), wfc  4 (l=1 m= 2)
     state #  47: atom   4 (Fe ), wfc  4 (l=1 m= 3)
     state #  48: atom   4 (Fe ), wfc  5 (l=2 m= 1)
     state #  49: atom   4 (Fe ), wfc  5 (l=2 m= 2)
     state #  50: atom   4 (Fe ), wfc  5 (l=2 m= 3)
     state #  51: atom   4 (Fe ), wfc  5 (l=2 m= 4)
     state #  52: atom   4 (Fe ), wfc  5 (l=2 m= 5)
     state #  53: atom   5 (Fe ), wfc  1 (l=0 m= 1)
     state #  54: atom   5 (Fe ), wfc  2 (l=0 m= 1)
     state #  55: atom   5 (Fe ), wfc  3 (l=1 m= 1)
     state #  56: atom   5 (Fe ), wfc  3 (l=1 m= 2)
     state #  57: atom   5 (Fe ), wfc  3 (l=1 m= 3)
     state #  58: atom   5 (Fe ), wfc  4 (l=1 m= 1)
     state #  59: atom   5 (Fe ), wfc  4 (l=1 m= 2)
     state #  60: atom   5 (Fe ), wfc  4 (l=1 m= 3)
     state #  61: atom   5 (Fe ), wfc  5 (l=2 m= 1)
     state #  62: atom   5 (Fe ), wfc  5 (l=2 m= 2)
     state #  63: atom   5 (Fe ), wfc  5 (l=2 m= 3)
     state #  64: atom   5 (Fe ), wfc  5 (l=2 m= 4)
     state #  65: atom   5 (Fe ), wfc  5 (l=2 m= 5)
     state #  66: atom   6 (Fe ), wfc  1 (l=0 m= 1)
     state #  67: atom   6 (Fe ), wfc  2 (l=0 m= 1)
     state #  68: atom   6 (Fe ), wfc  3 (l=1 m= 1)
     state #  69: atom   6 (Fe ), wfc  3 (l=1 m= 2)
     state #  70: atom   6 (Fe ), wfc  3 (l=1 m= 3)
     state #  71: atom   6 (Fe ), wfc  4 (l=1 m= 1)
     state #  72: atom   6 (Fe ), wfc  4 (l=1 m= 2)
     state #  73: atom   6 (Fe ), wfc  4 (l=1 m= 3)
     state #  74: atom   6 (Fe ), wfc  5 (l=2 m= 1)
     state #  75: atom   6 (Fe ), wfc  5 (l=2 m= 2)
     state #  76: atom   6 (Fe ), wfc  5 (l=2 m= 3)
     state #  77: atom   6 (Fe ), wfc  5 (l=2 m= 4)
     state #  78: atom   6 (Fe ), wfc  5 (l=2 m= 5)
     state #  79: atom   7 (Fe ), wfc  1 (l=0 m= 1)
     state #  80: atom   7 (Fe ), wfc  2 (l=0 m= 1)
     state #  81: atom   7 (Fe ), wfc  3 (l=1 m= 1)
     state #  82: atom   7 (Fe ), wfc  3 (l=1 m= 2)
     state #  83: atom   7 (Fe ), wfc  3 (l=1 m= 3)
     state #  84: atom   7 (Fe ), wfc  4 (l=1 m= 1)
     state #  85: atom   7 (Fe ), wfc  4 (l=1 m= 2)
     state #  86: atom   7 (Fe ), wfc  4 (l=1 m= 3)
     state #  87: atom   7 (Fe ), wfc  5 (l=2 m= 1)
     state #  88: atom   7 (Fe ), wfc  5 (l=2 m= 2)
     state #  89: atom   7 (Fe ), wfc  5 (l=2 m= 3)
     state #  90: atom   7 (Fe ), wfc  5 (l=2 m= 4)
     state #  91: atom   7 (Fe ), wfc  5 (l=2 m= 5)
     state #  92: atom   8 (Fe ), wfc  1 (l=0 m= 1)
     state #  93: atom   8 (Fe ), wfc  2 (l=0 m= 1)
     state #  94: atom   8 (Fe ), wfc  3 (l=1 m= 1)
     state #  95: atom   8 (Fe ), wfc  3 (l=1 m= 2)
     state #  96: atom   8 (Fe ), wfc  3 (l=1 m= 3)
     state #  97: atom   8 (Fe ), wfc  4 (l=1 m= 1)
     state #  98: atom   8 (Fe ), wfc  4 (l=1 m= 2)
     state #  99: atom   8 (Fe ), wfc  4 (l=1 m= 3)
     state # 100: atom   8 (Fe ), wfc  5 (l=2 m= 1)
     state # 101: atom   8 (Fe ), wfc  5 (l=2 m= 2)
     state # 102: atom   8 (Fe ), wfc  5 (l=2 m= 3)
     state # 103: atom   8 (Fe ), wfc  5 (l=2 m= 4)
     state # 104: atom   8 (Fe ), wfc  5 (l=2 m= 5)
     state # 105: atom   9 (Fe ), wfc  1 (l=0 m= 1)
     state # 106: atom   9 (Fe ), wfc  2 (l=0 m= 1)
     state # 107: atom   9 (Fe ), wfc  3 (l=1 m= 1)
     state # 108: atom   9 (Fe ), wfc  3 (l=1 m= 2)
     state # 109: atom   9 (Fe ), wfc  3 (l=1 m= 3)
     state # 110: atom   9 (Fe ), wfc  4 (l=1 m= 1)
     state # 111: atom   9 (Fe ), wfc  4 (l=1 m= 2)
     state # 112: atom   9 (Fe ), wfc  4 (l=1 m= 3)
     state # 113: atom   9 (Fe ), wfc  5 (l=2 m= 1)
     state # 114: atom   9 (Fe ), wfc  5 (l=2 m= 2)
     state # 115: atom   9 (Fe ), wfc  5 (l=2 m= 3)
     state # 116: atom   9 (Fe ), wfc  5 (l=2 m= 4)
     state # 117: atom   9 (Fe ), wfc  5 (l=2 m= 5)
     state # 118: atom  10 (Fe ), wfc  1 (l=0 m= 1)
     state # 119: atom  10 (Fe ), wfc  2 (l=0 m= 1)
     state # 120: atom  10 (Fe ), wfc  3 (l=1 m= 1)
     state # 121: atom  10 (Fe ), wfc  3 (l=1 m= 2)
     state # 122: atom  10 (Fe ), wfc  3 (l=1 m= 3)
     state # 123: atom  10 (Fe ), wfc  4 (l=1 m= 1)
     state # 124: atom  10 (Fe ), wfc  4 (l=1 m= 2)
     state # 125: atom  10 (Fe ), wfc  4 (l=1 m= 3)
     state # 126: atom  10 (Fe ), wfc  5 (l=2 m= 1)
     state # 127: atom  10 (Fe ), wfc  5 (l=2 m= 2)
     state # 128: atom  10 (Fe ), wfc  5 (l=2 m= 3)
     state # 129: atom  10 (Fe ), wfc  5 (l=2 m= 4)
     state # 130: atom  10 (Fe ), wfc  5 (l=2 m= 5)
     state # 131: atom  11 (Fe ), wfc  1 (l=0 m= 1)
     state # 132: atom  11 (Fe ), wfc  2 (l=0 m= 1)
     state # 133: atom  11 (Fe ), wfc  3 (l=1 m= 1)
     state # 134: atom  11 (Fe ), wfc  3 (l=1 m= 2)
     state # 135: atom  11 (Fe ), wfc  3 (l=1 m= 3)
     state # 136: atom  11 (Fe ), wfc  4 (l=1 m= 1)
     state # 137: atom  11 (Fe ), wfc  4 (l=1 m= 2)
     state # 138: atom  11 (Fe ), wfc  4 (l=1 m= 3)
     state # 139: atom  11 (Fe ), wfc  5 (l=2 m= 1)
     state # 140: atom  11 (Fe ), wfc  5 (l=2 m= 2)
     state # 141: atom  11 (Fe ), wfc  5 (l=2 m= 3)
     state # 142: atom  11 (Fe ), wfc  5 (l=2 m= 4)
     state # 143: atom  11 (Fe ), wfc  5 (l=2 m= 5)
     state # 144: atom  12 (Fe ), wfc  1 (l=0 m= 1)
     state # 145: atom  12 (Fe ), wfc  2 (l=0 m= 1)
     state # 146: atom  12 (Fe ), wfc  3 (l=1 m= 1)
     state # 147: atom  12 (Fe ), wfc  3 (l=1 m= 2)
     state # 148: atom  12 (Fe ), wfc  3 (l=1 m= 3)
     state # 149: atom  12 (Fe ), wfc  4 (l=1 m= 1)
     state # 150: atom  12 (Fe ), wfc  4 (l=1 m= 2)
     state # 151: atom  12 (Fe ), wfc  4 (l=1 m= 3)
     state # 152: atom  12 (Fe ), wfc  5 (l=2 m= 1)
     state # 153: atom  12 (Fe ), wfc  5 (l=2 m= 2)
     state # 154: atom  12 (Fe ), wfc  5 (l=2 m= 3)
     state # 155: atom  12 (Fe ), wfc  5 (l=2 m= 4)
     state # 156: atom  12 (Fe ), wfc  5 (l=2 m= 5)
     state # 157: atom  13 (Fe ), wfc  1 (l=0 m= 1)
     state # 158: atom  13 (Fe ), wfc  2 (l=0 m= 1)
     state # 159: atom  13 (Fe ), wfc  3 (l=1 m= 1)
     state # 160: atom  13 (Fe ), wfc  3 (l=1 m= 2)
     state # 161: atom  13 (Fe ), wfc  3 (l=1 m= 3)
     state # 162: atom  13 (Fe ), wfc  4 (l=1 m= 1)
     state # 163: atom  13 (Fe ), wfc  4 (l=1 m= 2)
     state # 164: atom  13 (Fe ), wfc  4 (l=1 m= 3)
     state # 165: atom  13 (Fe ), wfc  5 (l=2 m= 1)
     state # 166: atom  13 (Fe ), wfc  5 (l=2 m= 2)
     state # 167: atom  13 (Fe ), wfc  5 (l=2 m= 3)
     state # 168: atom  13 (Fe ), wfc  5 (l=2 m= 4)
     state # 169: atom  13 (Fe ), wfc  5 (l=2 m= 5)
     state # 170: atom  14 (Fe ), wfc  1 (l=0 m= 1)
     state # 171: atom  14 (Fe ), wfc  2 (l=0 m= 1)
     state # 172: atom  14 (Fe ), wfc  3 (l=1 m= 1)
     state # 173: atom  14 (Fe ), wfc  3 (l=1 m= 2)
     state # 174: atom  14 (Fe ), wfc  3 (l=1 m= 3)
     state # 175: atom  14 (Fe ), wfc  4 (l=1 m= 1)
     state # 176: atom  14 (Fe ), wfc  4 (l=1 m= 2)
     state # 177: atom  14 (Fe ), wfc  4 (l=1 m= 3)
     state # 178: atom  14 (Fe ), wfc  5 (l=2 m= 1)
     state # 179: atom  14 (Fe ), wfc  5 (l=2 m= 2)
     state # 180: atom  14 (Fe ), wfc  5 (l=2 m= 3)
     state # 181: atom  14 (Fe ), wfc  5 (l=2 m= 4)
     state # 182: atom  14 (Fe ), wfc  5 (l=2 m= 5)
     state # 183: atom  15 (Fe ), wfc  1 (l=0 m= 1)
     state # 184: atom  15 (Fe ), wfc  2 (l=0 m= 1)
     state # 185: atom  15 (Fe ), wfc  3 (l=1 m= 1)
     state # 186: atom  15 (Fe ), wfc  3 (l=1 m= 2)
     state # 187: atom  15 (Fe ), wfc  3 (l=1 m= 3)
     state # 188: atom  15 (Fe ), wfc  4 (l=1 m= 1)
     state # 189: atom  15 (Fe ), wfc  4 (l=1 m= 2)
     state # 190: atom  15 (Fe ), wfc  4 (l=1 m= 3)
     state # 191: atom  15 (Fe ), wfc  5 (l=2 m= 1)
     state # 192: atom  15 (Fe ), wfc  5 (l=2 m= 2)
     state # 193: atom  15 (Fe ), wfc  5 (l=2 m= 3)
     state # 194: atom  15 (Fe ), wfc  5 (l=2 m= 4)
     state # 195: atom  15 (Fe ), wfc  5 (l=2 m= 5)
     state # 196: atom  16 (Fe ), wfc  1 (l=0 m= 1)
     state # 197: atom  16 (Fe ), wfc  2 (l=0 m= 1)
     state # 198: atom  16 (Fe ), wfc  3 (l=1 m= 1)
     state # 199: atom  16 (Fe ), wfc  3 (l=1 m= 2)
     state # 200: atom  16 (Fe ), wfc  3 (l=1 m= 3)
     state # 201: atom  16 (Fe ), wfc  4 (l=1 m= 1)
     state # 202: atom  16 (Fe ), wfc  4 (l=1 m= 2)
     state # 203: atom  16 (Fe ), wfc  4 (l=1 m= 3)
     state # 204: atom  16 (Fe ), wfc  5 (l=2 m= 1)
     state # 205: atom  16 (Fe ), wfc  5 (l=2 m= 2)
     state # 206: atom  16 (Fe ), wfc  5 (l=2 m= 3)
     state # 207: atom  16 (Fe ), wfc  5 (l=2 m= 4)
     state # 208: atom  16 (Fe ), wfc  5 (l=2 m= 5)
     state # 209: atom  17 (Fe ), wfc  1 (l=0 m= 1)
     state # 210: atom  17 (Fe ), wfc  2 (l=0 m= 1)
     state # 211: atom  17 (Fe ), wfc  3 (l=1 m= 1)
     state # 212: atom  17 (Fe ), wfc  3 (l=1 m= 2)
     state # 213: atom  17 (Fe ), wfc  3 (l=1 m= 3)
     state # 214: atom  17 (Fe ), wfc  4 (l=1 m= 1)
     state # 215: atom  17 (Fe ), wfc  4 (l=1 m= 2)
     state # 216: atom  17 (Fe ), wfc  4 (l=1 m= 3)
     state # 217: atom  17 (Fe ), wfc  5 (l=2 m= 1)
     state # 218: atom  17 (Fe ), wfc  5 (l=2 m= 2)
     state # 219: atom  17 (Fe ), wfc  5 (l=2 m= 3)
     state # 220: atom  17 (Fe ), wfc  5 (l=2 m= 4)
     state # 221: atom  17 (Fe ), wfc  5 (l=2 m= 5)
     state # 222: atom  18 (Fe ), wfc  1 (l=0 m= 1)
     state # 223: atom  18 (Fe ), wfc  2 (l=0 m= 1)
     state # 224: atom  18 (Fe ), wfc  3 (l=1 m= 1)
     state # 225: atom  18 (Fe ), wfc  3 (l=1 m= 2)
     state # 226: atom  18 (Fe ), wfc  3 (l=1 m= 3)
     state # 227: atom  18 (Fe ), wfc  4 (l=1 m= 1)
     state # 228: atom  18 (Fe ), wfc  4 (l=1 m= 2)
     state # 229: atom  18 (Fe ), wfc  4 (l=1 m= 3)
     state # 230: atom  18 (Fe ), wfc  5 (l=2 m= 1)
     state # 231: atom  18 (Fe ), wfc  5 (l=2 m= 2)
     state # 232: atom  18 (Fe ), wfc  5 (l=2 m= 3)
     state # 233: atom  18 (Fe ), wfc  5 (l=2 m= 4)
     state # 234: atom  18 (Fe ), wfc  5 (l=2 m= 5)
     state # 235: atom  19 (Fe ), wfc  1 (l=0 m= 1)
     state # 236: atom  19 (Fe ), wfc  2 (l=0 m= 1)
     state # 237: atom  19 (Fe ), wfc  3 (l=1 m= 1)
     state # 238: atom  19 (Fe ), wfc  3 (l=1 m= 2)
     state # 239: atom  19 (Fe ), wfc  3 (l=1 m= 3)
     state # 240: atom  19 (Fe ), wfc  4 (l=1 m= 1)
     state # 241: atom  19 (Fe ), wfc  4 (l=1 m= 2)
     state # 242: atom  19 (Fe ), wfc  4 (l=1 m= 3)
     state # 243: atom  19 (Fe ), wfc  5 (l=2 m= 1)
     state # 244: atom  19 (Fe ), wfc  5 (l=2 m= 2)
     state # 245: atom  19 (Fe ), wfc  5 (l=2 m= 3)
     state # 246: atom  19 (Fe ), wfc  5 (l=2 m= 4)
     state # 247: atom  19 (Fe ), wfc  5 (l=2 m= 5)
     state # 248: atom  20 (Fe ), wfc  1 (l=0 m= 1)
     state # 249: atom  20 (Fe ), wfc  2 (l=0 m= 1)
     state # 250: atom  20 (Fe ), wfc  3 (l=1 m= 1)
     state # 251: atom  20 (Fe ), wfc  3 (l=1 m= 2)
     state # 252: atom  20 (Fe ), wfc  3 (l=1 m= 3)
     state # 253: atom  20 (Fe ), wfc  4 (l=1 m= 1)
     state # 254: atom  20 (Fe ), wfc  4 (l=1 m= 2)
     state # 255: atom  20 (Fe ), wfc  4 (l=1 m= 3)
     state # 256: atom  20 (Fe ), wfc  5 (l=2 m= 1)
     state # 257: atom  20 (Fe ), wfc  5 (l=2 m= 2)
     state # 258: atom  20 (Fe ), wfc  5 (l=2 m= 3)
     state # 259: atom  20 (Fe ), wfc  5 (l=2 m= 4)
     state # 260: atom  20 (Fe ), wfc  5 (l=2 m= 5)
     state # 261: atom  21 (O  ), wfc  1 (l=0 m= 1)
     state # 262: atom  21 (O  ), wfc  2 (l=1 m= 1)
     state # 263: atom  21 (O  ), wfc  2 (l=1 m= 2)
     state # 264: atom  21 (O  ), wfc  2 (l=1 m= 3)
     state # 265: atom  22 (H  ), wfc  1 (l=0 m= 1)
     state # 266: atom  23 (H  ), wfc  1 (l=0 m= 1)
     state # 267: atom  24 (O  ), wfc  1 (l=0 m= 1)
     state # 268: atom  24 (O  ), wfc  2 (l=1 m= 1)
     state # 269: atom  24 (O  ), wfc  2 (l=1 m= 2)
     state # 270: atom  24 (O  ), wfc  2 (l=1 m= 3)
     state # 271: atom  25 (H  ), wfc  1 (l=0 m= 1)
     state # 272: atom  26 (H  ), wfc  1 (l=0 m= 1)

 k =   0.0000000000  0.0000000000  0.0000000000
     e =   -83.24642 eV
     psi = 0.951*[# 248]+0.006*[# 249]+0.004*[# 162]+0.004*[# 175]+0.004*[# 188]+
          +0.004*[# 201]+0.002*[# 149]+0.002*[# 163]+0.002*[# 164]+0.002*[# 176]+
          +0.002*[# 177]+0.002*[# 189]+0.002*[# 190]+0.002*[# 202]+0.002*[# 203]+
    |psi|^2 = 1.000
     e =   -83.09660 eV
     psi = 0.357*[#  27]+0.288*[#  14]+0.150*[#   1]+0.113*[#  40]+0.013*[#  58]+
          +0.013*[#  71]+0.013*[#  84]+0.013*[#  97]+0.004*[# 136]+0.004*[#  54]+
          +0.004*[#  67]+0.004*[#  80]+0.004*[#  93]+0.004*[# 123]+0.003*[# 110]+
          +0.003*[# 149]+
    |psi|^2 = 1.000
     e =   -83.09199 eV
     psi = 0.501*[#  14]+0.449*[#  27]+0.005*[#  59]+0.005*[#  60]+0.005*[#  72]+
          +0.005*[#  73]+0.005*[#  85]+0.005*[#  86]+0.005*[#  98]+0.005*[#  99]+
          +0.003*[#  15]+0.003*[#  28]+
    |psi|^2 = 1.000
     e =   -83.08684 eV
     psi = 0.592*[#   1]+0.344*[#  40]+0.009*[#  14]+0.007*[#  27]+0.005*[#   2]+
          +0.004*[#  60]+0.004*[#  73]+0.004*[#  86]+0.004*[#  99]+0.004*[#  59]+
          +0.004*[#  72]+0.004*[#  85]+0.004*[#  98]+0.002*[#  41]+
    |psi|^2 = 1.000
     e =   -83.08365 eV
     psi = 0.490*[#  40]+0.204*[#   1]+0.149*[#  14]+0.134*[#  27]+0.005*[#  41]+
          +0.003*[#  15]+0.003*[#  28]+0.003*[#   2]+
    |psi|^2 = 1.000
     e =   -83.00209 eV
     psi = 0.616*[# 209]+0.228*[# 235]+0.074*[# 222]+0.008*[# 162]+0.008*[# 175]+
          +0.008*[# 188]+0.008*[# 201]+0.004*[# 110]+0.003*[# 136]+0.003*[# 158]+
          +0.003*[# 164]+0.003*[# 171]+0.003*[# 177]+0.003*[# 184]+0.003*[# 190]+
          +0.003*[# 197]+0.003*[# 203]+0.002*[# 210]+0.002*[# 123]+0.001*[# 149]+
    |psi|^2 = 1.000
     e =   -82.99495 eV
     psi = 0.699*[# 235]+0.168*[# 209]+0.088*[# 222]+0.007*[# 236]+0.006*[# 163]+
          +0.006*[# 176]+0.006*[# 189]+0.006*[# 202]+0.002*[# 210]+0.001*[# 164]+
          +0.001*[# 177]+0.001*[# 190]+0.001*[# 203]+0.001*[# 136]+
    |psi|^2 = 1.000
     e =   -82.99098 eV
     psi = 0.782*[# 222]+0.161*[# 209]+0.017*[# 235]+0.007*[# 223]+0.003*[# 203]+
          +0.003*[# 164]+0.003*[# 177]+0.003*[# 190]+0.003*[# 210]+0.002*[# 123]+
          +0.001*[# 188]+0.001*[# 201]+0.001*[# 162]+0.001*[# 175]+
    |psi|^2 = 1.000
     e =   -82.45276 eV
     psi = 0.264*[# 105]+0.215*[# 118]+0.200*[# 131]+0.023*[# 144]+0.022*[#  66]+
          +0.021*[#  53]+0.021*[#  92]+0.021*[#  79]+0.021*[# 170]+0.019*[# 157]+
          +0.018*[# 196]+0.014*[# 183]+0.009*[# 162]+0.009*[# 175]+0.009*[# 188]+
          +0.009*[# 201]+0.008*[#  58]+0.008*[#  71]+0.008*[#  84]+0.008*[#  97]+
          +0.004*[# 214]+0.004*[#   6]+0.004*[# 240]+0.004*[# 227]+0.004*[#  19]+
          +0.004*[#  32]+0.003*[#  15]+0.003*[#  28]+0.003*[#  41]+0.003*[#  45]+
          +0.003*[# 223]+0.003*[# 236]+0.003*[# 253]+0.002*[#   2]+0.002*[# 210]+
          +0.002*[# 249]+0.002*[#  54]+0.002*[#  67]+0.002*[#  80]+0.002*[#  93]+
          +0.002*[# 184]+0.002*[# 158]+0.002*[# 197]+0.002*[# 171]+
    |psi|^2 = 1.000
     e =   -82.42773 eV
     psi = 0.526*[# 118]+0.385*[# 131]+0.013*[# 105]+0.008*[# 119]+0.005*[# 132]+
          +0.004*[#  60]+0.004*[#  73]+0.004*[#  86]+0.004*[#  99]+0.004*[# 164]+
          +0.004*[# 177]+0.004*[# 190]+0.004*[# 203]+0.003*[#  59]+0.003*[#  72]+
          +0.003*[#  85]+0.003*[#  98]+0.003*[# 163]+0.003*[# 176]+0.003*[# 189]+
          +0.003*[# 202]+
    |psi|^2 = 1.000
     e =   -82.42583 eV
     psi = 0.599*[# 105]+0.252*[# 131]+0.099*[# 118]+0.010*[# 106]+0.004*[# 132]+
          +0.003*[# 144]+0.002*[#  59]+0.002*[#  72]+0.002*[#  85]+0.002*[#  98]+
          +0.002*[# 163]+0.002*[# 176]+0.002*[# 189]+0.002*[# 202]+0.001*[# 119]+
    |psi|^2 = 1.000
     e =   -82.38532 eV
     psi = 0.718*[# 144]+0.054*[# 131]+0.052*[# 118]+0.021*[# 170]+0.017*[# 105]+
          +0.014*[# 157]+0.012*[# 196]+0.012*[#  66]+0.010*[#  53]+0.010*[#  92]+
          +0.010*[#  79]+0.006*[# 145]+0.006*[# 183]+0.003*[# 119]+0.003*[# 132]+
          +0.003*[#  45]+0.002*[# 253]+0.002*[#  59]+0.002*[#  60]+0.002*[# 164]+
          +0.002*[#  72]+0.002*[#  73]+0.002*[#  85]+0.002*[#  86]+0.002*[#  98]+
          +0.002*[#  99]+0.002*[# 163]+0.002*[# 176]+0.002*[# 177]+0.002*[# 189]+
          +0.002*[# 190]+0.002*[# 202]+0.002*[# 203]+0.002*[# 106]+0.001*[# 210]+
          +0.001*[#   2]+
    |psi|^2 = 1.000
     e =   -82.36174 eV
     psi = 0.620*[# 170]+0.080*[#  79]+0.062*[#  92]+0.060*[#  53]+0.027*[#  66]+
          +0.024*[# 157]+0.014*[# 196]+0.011*[# 149]+0.011*[# 123]+0.011*[# 136]+
          +0.011*[# 110]+0.010*[# 171]+0.003*[# 144]+0.002*[#  80]+0.002*[# 111]+
          +0.002*[# 124]+0.002*[# 137]+0.002*[# 150]+0.002*[# 125]+0.002*[# 151]+
          +0.002*[# 214]+0.002*[# 240]+0.002*[# 112]+0.002*[# 138]+0.002*[# 227]+
          +0.001*[#  45]+0.001*[#  71]+0.001*[# 215]+0.001*[# 228]+0.002*[# 253]+
          +0.001*[# 241]+0.001*[#   6]+0.001*[#  19]+0.001*[#  32]+0.001*[# 183]+
          +0.001*[# 216]+0.001*[# 229]+0.001*[# 242]+
    |psi|^2 = 1.000
     e =   -82.35849 eV
     psi = 0.379*[#  66]+0.238*[# 157]+0.108*[#  92]+0.079*[#  79]+0.064*[#  53]+
          +0.018*[# 170]+0.011*[# 196]+0.011*[# 151]+0.011*[# 138]+0.011*[# 112]+
          +0.011*[# 125]+0.009*[# 183]+0.005*[#  67]+0.004*[#   8]+0.004*[#  21]+
          +0.004*[#  34]+0.004*[#  47]+0.004*[# 158]+0.002*[#  93]+0.002*[# 110]+
          +0.002*[# 123]+0.002*[# 136]+0.002*[# 149]+0.001*[# 216]+0.002*[# 242]+
          +0.001*[# 229]+0.001*[#  80]+
    |psi|^2 = 1.000
     e =   -82.35824 eV
     psi = 0.257*[#  66]+0.187*[#  53]+0.176*[# 196]+0.146*[#  92]+0.079*[#  79]+
          +0.055*[# 157]+0.011*[# 124]+0.011*[# 150]+0.011*[# 111]+0.011*[# 137]+
          +0.005*[#   7]+0.005*[#  20]+0.005*[#  33]+0.005*[#  46]+0.005*[# 183]+
          +0.004*[#  67]+0.003*[#  54]+0.003*[# 197]+0.002*[#  93]+0.001*[# 215]+
          +0.001*[# 228]+0.001*[# 241]+
    |psi|^2 = 1.000
     e =   -82.35606 eV
     psi = 0.413*[# 157]+0.206*[#  53]+0.127*[#  79]+0.099*[#  92]+0.083*[# 170]+
          +0.009*[# 196]+0.008*[#  66]+0.008*[# 183]+0.005*[# 158]+0.003*[#  54]+
          +0.002*[#   8]+0.002*[#  21]+0.002*[#  34]+0.002*[#  47]+0.002*[# 216]+
          +0.002*[# 242]+0.002*[# 229]+0.002*[# 110]+0.002*[# 123]+0.002*[# 136]+
          +0.002*[# 149]+0.002*[# 255]+0.001*[#  80]+
    |psi|^2 = 1.000
     e =   -82.35545 eV
     psi = 0.495*[# 196]+0.178*[#  79]+0.116*[#  92]+0.110*[# 170]+0.030*[#  53]+
          +0.017*[# 183]+0.007*[# 197]+0.003*[# 110]+0.003*[# 123]+0.003*[# 136]+
          +0.003*[# 149]+0.003*[# 228]+0.003*[# 215]+0.003*[# 241]+0.002*[#  80]+
          +0.002*[# 254]+0.002*[#  93]+0.001*[#   7]+0.001*[#  20]+0.001*[#  33]+
          +0.001*[#  46]+0.001*[# 171]+0.001*[#  97]+
    |psi|^2 = 1.000
     e =   -82.35204 eV
     psi = 0.292*[#  92]+0.275*[#  53]+0.230*[#  79]+0.144*[#  66]+0.018*[# 183]+
          +0.010*[# 170]+0.005*[#  93]+0.005*[#  54]+0.004*[#  80]+0.004*[# 196]+
          +0.002*[#  67]+0.002*[# 157]+
    |psi|^2 = 1.000
     e =   -82.34433 eV
     psi = 0.566*[# 183]+0.136*[# 196]+0.114*[# 157]+0.070*[#  79]+0.021*[#  66]+
          +0.020*[# 144]+0.010*[#  53]+0.009*[#  92]+0.008*[# 184]+0.003*[# 105]+
          +0.003*[# 118]+0.003*[# 131]+0.002*[# 197]+0.002*[# 158]+0.001*[#  84]+
          +0.001*[#  80]+0.001*[# 216]+0.001*[# 229]+0.001*[# 242]+0.001*[#  67]+
          +0.001*[# 110]+0.001*[# 123]+0.001*[# 136]+0.001*[# 149]+0.001*[# 215]+
          +0.001*[# 228]+
    |psi|^2 = 1.000
     e =   -82.33126 eV
     psi = 0.283*[# 183]+0.155*[# 144]+0.066*[#  92]+0.066*[#  53]+0.059*[#  66]+
          +0.058*[#  79]+0.053*[# 196]+0.049*[# 157]+0.046*[# 170]+0.032*[# 131]+
          +0.031*[# 118]+0.031*[# 105]+0.011*[# 145]+0.006*[# 106]+0.006*[# 119]+
          +0.006*[# 132]+0.005*[# 184]+0.002*[# 214]+0.002*[# 227]+0.002*[# 240]+
          +0.002*[# 253]+0.002*[# 223]+0.002*[# 236]+0.001*[#   6]+0.001*[# 210]+
          +0.001*[#  19]+0.001*[#  32]+0.001*[#  54]+0.001*[#  93]+0.001*[#  15]+
          +0.001*[#  28]+0.001*[#  41]+0.001*[#  80]+0.001*[# 249]+
    |psi|^2 = 1.000
     e =   -49.41307 eV
     psi = 0.983*[# 250]+0.001*[# 268]+
    |psi|^2 = 1.000
     e =   -49.27430 eV
     psi = 0.493*[#  29]+0.480*[#  16]+0.002*[#  56]+0.002*[#  57]+0.002*[#  69]+
          +0.002*[#  70]+0.002*[#  82]+0.002*[#  83]+0.002*[#  95]+0.002*[#  96]+
    |psi|^2 = 1.000
     e =   -49.27020 eV
     psi = 0.527*[#   3]+0.231*[#  16]+0.223*[#  29]+0.001*[#  55]+0.001*[#  68]+
          +0.001*[#  81]+0.001*[#  94]+
    |psi|^2 = 1.000
     e =   -49.26818 eV
     psi = 0.587*[#  42]+0.181*[#   3]+0.106*[#  16]+0.103*[#  29]+0.001*[#  56]+
          +0.001*[#  57]+0.001*[#  69]+0.001*[#  70]+0.001*[#  82]+0.001*[#  83]+
          +0.001*[#  95]+0.001*[#  96]+
    |psi|^2 = 1.000
     e =   -49.25230 eV
     psi = 0.393*[#  42]+0.272*[#   3]+0.163*[#  16]+0.162*[#  29]+0.001*[#  19]+
          +0.001*[#  32]+0.001*[#  45]+
    |psi|^2 = 1.000
     e =   -49.25185 eV
     psi = 0.728*[# 252]+0.232*[# 251]+0.014*[# 239]+0.004*[# 242]+0.004*[# 225]+
          +0.001*[# 172]+0.001*[# 185]+0.001*[# 228]+0.001*[# 175]+0.001*[# 188]+
    |psi|^2 = 1.000
     e =   -49.23174 eV
     psi = 0.726*[# 251]+0.231*[# 252]+0.016*[# 225]+0.005*[# 239]+0.004*[# 228]+
          +0.002*[# 159]+0.002*[# 198]+0.001*[# 242]+0.001*[# 162]+0.001*[# 201]+
          +0.001*[# 161]+
    |psi|^2 = 1.000
     e =   -49.17996 eV
     psi = 0.531*[# 211]+0.416*[# 237]+0.012*[# 224]+0.009*[# 212]+0.004*[# 187]+
          +0.004*[# 200]+0.003*[# 161]+0.003*[# 238]+0.003*[# 174]+0.001*[# 190]+
          +0.001*[# 203]+0.001*[# 185]+0.001*[# 198]+
    |psi|^2 = 1.000
     e =   -49.17642 eV
     psi = 0.333*[# 211]+0.319*[# 224]+0.310*[# 237]+0.005*[# 186]+0.005*[# 199]+
          +0.004*[# 160]+0.004*[# 173]+0.004*[# 212]+0.001*[# 163]+0.001*[# 176]+
          +0.002*[# 189]+0.001*[# 202]+
    |psi|^2 = 1.000
     e =   -49.15821 eV
     psi = 0.642*[# 224]+0.244*[# 237]+0.096*[# 211]+0.002*[# 214]+0.001*[# 212]+
          +0.001*[# 253]+
    |psi|^2 = 1.000
     e =   -49.12738 eV
     psi = 0.358*[#  30]+0.310*[#   4]+0.129*[#  17]+0.118*[#  43]+0.016*[#  18]+
          +0.014*[#   5]+0.008*[#  31]+0.007*[#  44]+0.006*[#  55]+0.006*[#  94]+
          +0.003*[#  58]+0.003*[#  97]+0.003*[#  68]+0.003*[#  81]+0.002*[#   7]+
          +0.002*[#  46]+0.002*[#  54]+0.002*[#  93]+0.001*[#  20]+0.001*[#  33]+
          +0.001*[#  71]+0.001*[#  84]+
    |psi|^2 = 1.000
     e =   -49.12716 eV
     psi = 0.320*[#  18]+0.281*[#   5]+0.166*[#  31]+0.148*[#  44]+0.018*[#  30]+
          +0.015*[#   4]+0.006*[#  68]+0.006*[#  17]+0.006*[#  81]+0.006*[#  43]+
          +0.003*[#  71]+0.003*[#  84]+0.003*[#  55]+0.003*[#  94]+0.002*[#   8]+
          +0.002*[#  47]+0.002*[#  67]+0.002*[#  80]+0.001*[#  21]+0.001*[#  34]+
          +0.001*[#  58]+0.001*[#  97]+
    |psi|^2 = 1.000
     e =   -49.12353 eV
     psi = 0.241*[#  31]+0.210*[#  44]+0.128*[#  18]+0.109*[#   5]+0.108*[#  17]+
          +0.096*[#  43]+0.041*[#  30]+0.035*[#   4]+0.004*[#  69]+0.004*[#  82]+
          +0.004*[#  56]+0.004*[#  95]+0.002*[#  70]+0.002*[#  83]+0.002*[#  57]+
          +0.002*[#  96]+0.001*[#  59]+0.001*[#  72]+0.001*[#  85]+0.001*[#  98]+
    |psi|^2 = 1.000
     e =   -49.12342 eV
     psi = 0.266*[#  17]+0.235*[#  43]+0.102*[#  30]+0.099*[#  31]+0.085*[#  44]+
          +0.085*[#   4]+0.052*[#  18]+0.044*[#   5]+0.004*[#  57]+0.004*[#  96]+
          +0.004*[#  70]+0.004*[#  83]+0.002*[#  56]+0.002*[#  95]+0.002*[#  69]+
          +0.002*[#  82]+0.001*[#  60]+
    |psi|^2 = 1.000
     e =   -49.06028 eV
     psi = 0.249*[#   4]+0.211*[#  30]+0.191*[#  43]+0.168*[#  17]+0.045*[#   5]+
          +0.039*[#  18]+0.039*[#  44]+0.034*[#  31]+0.003*[#  56]+0.003*[#  95]+
          +0.003*[#  69]+0.003*[#  82]+0.002*[#   7]+0.002*[#  33]+0.002*[#  20]+
          +0.002*[#  46]+
    |psi|^2 = 1.000
     e =   -49.06012 eV
     psi = 0.238*[#   5]+0.204*[#  18]+0.202*[#  44]+0.175*[#  31]+0.048*[#   4]+
          +0.040*[#  30]+0.037*[#  43]+0.032*[#  17]+0.003*[#  70]+0.003*[#  83]+
          +0.003*[#  57]+0.003*[#  96]+0.002*[#   8]+0.002*[#  21]+0.002*[#  34]+
          +0.002*[#  47]+
    |psi|^2 = 1.000
     e =   -49.04711 eV
     psi = 0.197*[#  43]+0.179*[#  17]+0.156*[#   4]+0.137*[#  30]+0.088*[#  44]+
          +0.079*[#  31]+0.075*[#   5]+0.067*[#  18]+0.004*[#  20]+0.004*[#  46]+
          +0.003*[#  33]+0.003*[#   7]+0.002*[#  34]+0.002*[#  21]+0.002*[#  47]+
          +0.002*[#   8]+
    |psi|^2 = 1.000
     e =   -49.04698 eV
     psi = 0.191*[#  44]+0.170*[#  31]+0.164*[#   5]+0.145*[#  18]+0.091*[#  43]+
          +0.082*[#  17]+0.072*[#   4]+0.063*[#  30]+0.004*[#  34]+0.004*[#  47]+
          +0.004*[#  21]+0.003*[#   8]+0.002*[#  20]+0.002*[#  46]+0.002*[#  33]+
          +0.001*[#   7]+
    |psi|^2 = 1.000
     e =   -49.04383 eV
     psi = 0.492*[# 213]+0.458*[# 226]+0.005*[# 173]+0.005*[# 186]+0.005*[# 160]+
          +0.005*[# 199]+0.004*[# 185]+0.004*[# 172]+0.003*[# 198]+0.003*[# 159]+
          +0.001*[# 229]+0.001*[# 175]+0.001*[# 188]+
    |psi|^2 = 1.000
     e =   -49.03808 eV
     psi = 0.476*[# 238]+0.462*[# 212]+0.009*[# 211]+0.006*[# 174]+0.006*[# 161]+
          +0.004*[# 159]+0.004*[# 187]+0.004*[# 200]+0.004*[# 172]+0.003*[# 198]+
          +0.003*[# 185]+0.002*[# 237]+0.001*[# 215]+0.001*[# 162]+0.001*[# 164]+
          +0.001*[# 177]+0.001*[# 188]+0.001*[# 201]+0.001*[# 241]+
    |psi|^2 = 1.000
     e =   -49.00955 eV
     psi = 0.918*[# 239]+0.020*[# 252]+0.012*[# 226]+0.010*[# 213]+0.007*[# 255]+
          +0.002*[# 173]+0.002*[# 199]+0.002*[# 200]+0.002*[# 160]+0.002*[# 161]+
          +0.002*[# 186]+0.002*[# 174]+0.002*[# 187]+0.002*[# 242]+0.002*[# 159]+
          +0.002*[# 172]+0.002*[# 198]+0.001*[# 185]+
    |psi|^2 = 1.000
     e =   -48.99981 eV
     psi = 0.910*[# 225]+0.021*[# 251]+0.014*[# 212]+0.013*[# 238]+0.007*[# 254]+
          +0.003*[# 187]+0.003*[# 200]+0.002*[# 199]+0.002*[# 160]+0.002*[# 174]+
          +0.002*[# 173]+0.002*[# 186]+0.002*[# 161]+0.002*[# 198]+0.002*[# 228]+
          +0.002*[# 185]+0.002*[# 159]+0.001*[# 172]+0.001*[# 224]+
    |psi|^2 = 1.000
     e =   -48.96671 eV
     psi = 0.489*[# 226]+0.457*[# 213]+0.022*[# 239]+0.008*[# 216]+0.007*[# 229]+
          +0.002*[# 161]+0.002*[# 200]+0.002*[# 174]+0.002*[# 187]+0.002*[# 212]+
          +0.002*[# 238]+0.001*[# 252]+
    |psi|^2 = 1.000
     e =   -48.96119 eV
     psi = 0.469*[# 212]+0.466*[# 238]+0.028*[# 225]+0.008*[# 215]+0.007*[# 241]+
          +0.004*[# 211]+0.003*[# 160]+0.003*[# 173]+0.002*[# 199]+0.001*[# 186]+
          +0.001*[# 226]+0.001*[# 213]+0.001*[# 251]+0.001*[# 237]+0.001*[# 254]+
    |psi|^2 = 1.000
     e =   -48.60824 eV
     psi = 0.283*[# 120]+0.276*[# 133]+0.032*[#  56]+0.032*[#  83]+0.032*[#  96]+
          +0.031*[#  82]+0.029*[# 174]+0.027*[# 161]+0.027*[# 173]+0.026*[# 199]+
          +0.023*[#  57]+0.023*[#  70]+0.021*[#  69]+0.021*[#  95]+0.017*[# 200]+
          +0.017*[# 160]+0.016*[# 187]+0.015*[# 186]+0.006*[# 224]+0.006*[# 237]+
          +0.004*[#  16]+0.004*[#  29]+0.002*[#  19]+0.002*[#  32]+0.002*[# 227]+
          +0.002*[# 240]+0.001*[# 108]+0.001*[# 109]+0.001*[# 122]+0.001*[# 134]+
    |psi|^2 = 1.000
     e =   -48.60568 eV
     psi = 0.196*[# 108]+0.188*[# 134]+0.071*[# 121]+0.046*[#  70]+0.044*[#  57]+
          +0.043*[# 147]+0.041*[#  83]+0.040*[#  96]+0.037*[# 174]+0.036*[# 161]+
          +0.035*[# 200]+0.032*[# 187]+0.031*[# 109]+0.030*[# 122]+0.013*[#  69]+
          +0.011*[#  95]+0.011*[# 135]+0.010*[# 160]+0.009*[# 186]+0.007*[# 148]+
          +0.005*[# 225]+0.004*[# 159]+0.004*[# 198]+0.004*[#  94]+0.003*[#  55]+
          +0.003*[#  82]+0.003*[# 120]+0.003*[#  17]+0.003*[#  43]+0.002*[#  56]+
          +0.002*[# 133]+0.002*[# 173]+0.002*[# 199]+0.002*[# 107]+0.002*[# 212]+
          +0.002*[# 137]+0.002*[# 238]+0.001*[# 111]+0.001*[#   4]+0.001*[#  30]+
    |psi|^2 = 1.000
     e =   -48.60535 eV
     psi = 0.199*[# 109]+0.192*[# 122]+0.070*[# 135]+0.044*[#  56]+0.043*[#  95]+
          +0.042*[#  82]+0.042*[# 148]+0.042*[#  69]+0.039*[# 173]+0.036*[# 199]+
          +0.034*[# 160]+0.031*[# 108]+0.031*[# 186]+0.030*[# 134]+0.011*[# 121]+
          +0.011*[#  96]+0.009*[# 174]+0.009*[#  83]+0.008*[# 161]+0.007*[# 147]+
          +0.005*[#  57]+0.005*[# 172]+0.005*[# 239]+0.004*[#  70]+0.004*[# 185]+
          +0.004*[#  81]+0.003*[#  68]+0.003*[# 200]+0.003*[# 187]+0.003*[#  31]+
          +0.003*[#  44]+0.002*[# 213]+0.002*[# 125]+0.002*[# 226]+0.002*[# 112]+
          +0.001*[#   5]+0.001*[#  18]+0.001*[# 107]+
    |psi|^2 = 1.000
     e =   -48.59810 eV
     psi = 0.374*[# 107]+0.154*[# 146]+0.037*[#  70]+0.036*[#  57]+0.031*[#  95]+
          +0.031*[#  69]+0.030*[# 200]+0.027*[# 187]+0.026*[# 160]+0.026*[#  82]+
          +0.026*[#  56]+0.024*[# 173]+0.023*[# 186]+0.023*[# 199]+0.020*[#  96]+
          +0.020*[#  83]+0.019*[# 174]+0.019*[# 161]+0.006*[# 211]+0.004*[#   3]+
          +0.004*[#  42]+0.002*[#   6]+0.002*[# 120]+0.002*[# 134]+0.002*[# 214]+
          +0.002*[# 108]+0.002*[# 133]+0.002*[# 250]+0.001*[#  45]+0.001*[# 121]+
          +0.001*[# 185]+
    |psi|^2 = 1.000
     e =   -48.58474 eV
     psi = 0.237*[# 121]+0.114*[# 147]+0.087*[# 135]+0.080*[# 108]+0.065*[#  55]+
          +0.063*[#  94]+0.062*[# 198]+0.058*[# 159]+0.054*[# 134]+0.043*[# 148]+
          +0.028*[# 109]+0.019*[# 122]+0.005*[#  83]+0.004*[#  68]+0.004*[#  70]+
          +0.004*[# 150]+0.004*[# 174]+0.004*[# 185]+0.004*[#  81]+0.003*[# 172]+
          +0.003*[# 238]+0.003*[#  69]+0.003*[#  82]+0.003*[# 173]+0.003*[# 187]+
          +0.002*[#  96]+0.002*[# 124]+0.002*[# 186]+0.002*[#  57]+0.002*[#  30]+
          +0.002*[# 197]+0.002*[# 212]+0.002*[#  54]+0.002*[#  93]+0.002*[# 111]+
          +0.002*[# 137]+0.002*[# 158]+0.001*[#   4]+0.001*[#  58]+0.001*[#  97]+
          +0.001*[# 151]+0.001*[# 162]+0.001*[# 201]+0.001*[# 161]+0.001*[# 226]+
    |psi|^2 = 1.000
     e =   -48.58428 eV
     psi = 0.238*[# 135]+0.115*[# 148]+0.088*[# 121]+0.078*[# 109]+0.066*[#  68]+
          +0.063*[#  81]+0.061*[# 172]+0.057*[# 185]+0.053*[# 122]+0.042*[# 147]+
          +0.029*[# 108]+0.020*[# 134]+0.005*[#  95]+0.004*[#  56]+0.004*[#  94]+
          +0.004*[# 151]+0.004*[# 159]+0.004*[#  55]+0.004*[# 160]+0.003*[# 198]+
          +0.003*[# 199]+0.003*[#  96]+0.003*[# 226]+0.003*[# 161]+0.003*[#  57]+
          +0.003*[#  69]+0.002*[# 138]+0.002*[# 200]+0.002*[#  82]+0.002*[#  18]+
          +0.002*[#  67]+0.002*[# 184]+0.002*[# 213]+0.002*[#  80]+0.002*[# 112]+
          +0.002*[# 125]+0.002*[# 171]+0.001*[#   5]+0.001*[#  71]+0.001*[#  84]+
          +0.001*[# 150]+0.001*[# 175]+0.001*[# 188]+0.001*[# 238]+
    |psi|^2 = 1.000
     e =   -48.54504 eV
     psi = 0.262*[# 133]+0.257*[# 120]+0.156*[# 146]+0.073*[# 107]+0.029*[#  94]+
          +0.029*[# 172]+0.029*[#  81]+0.029*[# 159]+0.027*[#  68]+0.027*[# 198]+
          +0.027*[#  55]+0.025*[# 185]+0.002*[#  69]+0.001*[#  56]+0.001*[#  95]+
          +0.001*[#  82]+0.001*[#  83]+0.001*[#  96]+0.001*[#  57]+0.001*[#  70]+
    |psi|^2 = 1.000
     e =   -48.51075 eV
     psi = 0.136*[# 122]+0.103*[# 109]+0.097*[# 148]+0.069*[# 134]+0.052*[# 108]+
          +0.051*[# 135]+0.049*[# 147]+0.041*[#  96]+0.039*[#  57]+0.034*[# 161]+
          +0.034*[#  70]+0.032*[# 200]+0.031*[#  83]+0.030*[# 174]+0.026*[# 121]+
          +0.024*[#  56]+0.022*[#  95]+0.020*[# 187]+0.019*[# 160]+0.018*[# 199]+
          +0.015*[#  69]+0.013*[#  82]+0.013*[# 173]+0.009*[# 186]+0.002*[#  55]+
          +0.002*[#  94]+0.002*[# 213]+0.001*[#   5]+0.001*[# 198]+
    |psi|^2 = 1.000
     e =   -48.51034 eV
     psi = 0.137*[# 134]+0.103*[# 108]+0.097*[# 147]+0.069*[# 122]+0.053*[# 109]+
          +0.050*[# 121]+0.049*[# 148]+0.045*[#  69]+0.039*[#  82]+0.037*[# 173]+
          +0.033*[#  56]+0.030*[#  95]+0.026*[# 160]+0.026*[# 186]+0.025*[#  70]+
          +0.025*[# 135]+0.024*[# 199]+0.022*[#  83]+0.021*[# 174]+0.015*[# 187]+
          +0.015*[#  96]+0.013*[#  57]+0.012*[# 161]+0.011*[# 200]+0.002*[#  68]+
          +0.002*[#  81]+0.002*[# 212]+0.001*[#   4]+
    |psi|^2 = 1.000
     e =   -48.47270 eV
     psi = 0.298*[# 146]+0.294*[# 107]+0.175*[# 120]+0.174*[# 133]+0.006*[# 161]+
          +0.005*[# 174]+0.005*[# 173]+0.004*[# 199]+0.004*[# 160]+0.004*[# 200]+
          +0.003*[# 187]+0.003*[# 186]+0.002*[# 110]+0.002*[#  55]+0.002*[#  68]+
          +0.002*[#  81]+0.002*[#  94]+0.002*[# 123]+0.002*[# 136]+0.001*[# 185]+
          +0.001*[# 198]+0.001*[# 253]+
    |psi|^2 = 1.000
     e =   -48.45088 eV
     psi = 0.116*[# 174]+0.112*[#  83]+0.110*[# 161]+0.101*[#  96]+0.058*[# 173]+
          +0.057*[#  82]+0.052*[# 199]+0.049*[#  56]+0.045*[#  57]+0.043*[# 200]+
          +0.038*[#  70]+0.035*[# 187]+0.032*[#  95]+0.031*[# 160]+0.026*[#  69]+
          +0.024*[# 186]+0.005*[# 211]+0.005*[# 120]+0.005*[# 133]+0.004*[# 106]+
          +0.004*[# 107]+0.004*[#  42]+0.004*[# 145]+0.004*[#   3]+0.003*[# 214]+
          +0.002*[#  45]+0.002*[# 253]+0.002*[#   6]+0.002*[# 146]+0.002*[# 172]+
          +0.002*[# 250]+0.001*[# 159]+0.001*[#  41]+0.001*[# 108]+0.001*[# 210]+
          +0.001*[#   2]+0.001*[# 249]+
    |psi|^2 = 1.000
     e =   -48.44785 eV
     psi = 0.111*[# 173]+0.106*[#  82]+0.104*[# 199]+0.093*[#  56]+0.070*[# 174]+
          +0.067*[# 161]+0.065*[#  83]+0.061*[#  96]+0.053*[#  95]+0.053*[# 160]+
          +0.045*[#  69]+0.045*[# 186]+0.020*[#  57]+0.019*[# 200]+0.018*[# 187]+
          +0.018*[#  70]+0.006*[# 224]+0.006*[# 237]+0.004*[# 119]+0.004*[# 132]+
          +0.004*[#  16]+0.003*[#  29]+0.003*[# 240]+0.002*[# 227]+0.002*[#  19]+
          +0.002*[#  32]+0.002*[# 223]+0.002*[# 236]+0.001*[#  15]+0.001*[#  28]+
    |psi|^2 = 1.000
     e =   -48.43655 eV
     psi = 0.157*[# 160]+0.118*[#  95]+0.112*[#  69]+0.090*[# 186]+0.068*[# 173]+
          +0.064*[# 200]+0.057*[#  56]+0.051*[# 199]+0.050*[#  57]+0.047*[#  82]+
          +0.044*[#  70]+0.036*[# 187]+0.018*[# 161]+0.016*[#  96]+0.015*[# 174]+
          +0.011*[#  83]+0.004*[# 239]+0.004*[# 213]+0.003*[# 148]+0.003*[# 226]+
          +0.002*[#  44]+0.002*[#   5]+0.002*[#  31]+0.002*[#  18]+0.001*[# 147]+
          +0.001*[# 212]+0.001*[# 225]+0.001*[# 109]+0.001*[# 122]+0.001*[# 159]+
    |psi|^2 = 1.000
     e =   -48.43592 eV
     psi = 0.151*[# 200]+0.128*[#  70]+0.125*[#  57]+0.113*[# 187]+0.064*[# 174]+
          +0.046*[# 160]+0.044*[#  96]+0.041*[#  69]+0.041*[#  83]+0.037*[#  95]+
          +0.037*[# 173]+0.036*[# 186]+0.035*[# 161]+0.023*[#  82]+0.022*[#  56]+
          +0.014*[# 199]+0.004*[# 225]+0.003*[# 212]+0.003*[# 238]+0.003*[# 147]+
          +0.002*[#   4]+0.002*[#  17]+0.002*[#  43]+0.002*[#  30]+0.001*[# 239]+
          +0.001*[# 172]+0.001*[# 213]+0.001*[# 226]+
    |psi|^2 = 1.000
     e =   -48.42147 eV
     psi = 0.167*[# 108]+0.164*[# 121]+0.160*[# 147]+0.134*[# 134]+0.085*[# 109]+
          +0.083*[# 135]+0.081*[# 148]+0.068*[# 122]+0.005*[#  57]+0.005*[#  95]+
          +0.005*[#  96]+0.004*[# 124]+0.004*[# 111]+0.003*[# 137]+0.003*[#  56]+
          +0.002*[# 150]+0.002*[# 138]+0.002*[# 199]+0.002*[# 112]+0.002*[#  70]+
          +0.002*[# 125]+0.002*[# 161]+0.002*[#  83]+0.001*[#  55]+0.001*[# 160]+
          +0.001*[# 186]+0.001*[#  94]+0.001*[# 151]+0.001*[# 200]+
    |psi|^2 = 1.000
     e =   -48.42093 eV
     psi = 0.167*[# 109]+0.163*[# 135]+0.162*[# 148]+0.135*[# 122]+0.084*[# 108]+
          +0.083*[# 121]+0.082*[# 147]+0.068*[# 134]+0.005*[#  82]+0.004*[# 138]+
          +0.004*[# 112]+0.004*[#  69]+0.004*[#  83]+0.003*[# 125]+0.003*[# 174]+
          +0.003*[#  70]+0.002*[# 124]+0.002*[# 151]+0.002*[# 173]+0.002*[# 111]+
          +0.002*[# 187]+0.002*[#  56]+0.002*[# 137]+0.002*[# 161]+0.001*[#  68]+
          +0.001*[#  81]+0.001*[# 150]+0.001*[# 186]+
    |psi|^2 = 1.000
     e =   -48.39613 eV
     psi = 0.135*[#  96]+0.131*[#  83]+0.118*[#  56]+0.115*[#  82]+0.115*[#  69]+
          +0.110*[#  95]+0.102*[#  70]+0.097*[#  57]+0.014*[# 161]+0.014*[# 174]+
          +0.004*[# 187]+0.004*[# 200]+0.003*[# 199]+0.003*[# 173]+0.003*[#  86]+
          +0.003*[#  99]+0.002*[#  59]+0.002*[#  68]+0.002*[#  72]+0.002*[#  85]+
          +0.002*[# 186]+0.002*[#  98]+0.002*[#  55]+0.002*[#  60]+0.002*[#  73]+
          +0.002*[#  81]+0.002*[# 160]+0.002*[#  94]+
    |psi|^2 = 1.000
     e =   -48.39496 eV
     psi = 0.286*[# 161]+0.263*[# 174]+0.065*[#  96]+0.049*[#  95]+0.049*[#  83]+
          +0.038*[#  69]+0.036*[#  82]+0.036*[# 187]+0.030*[#  56]+0.028*[# 200]+
          +0.021*[# 159]+0.019*[# 172]+0.012*[# 198]+0.010*[#  57]+0.007*[# 185]+
          +0.006*[#  94]+0.005*[#  81]+0.005*[# 164]+0.005*[# 177]+0.005*[#  55]+
          +0.004*[#  70]+0.003*[#  68]+0.001*[# 199]+0.001*[# 135]+
    |psi|^2 = 1.000
     e =   -48.39389 eV
     psi = 0.164*[#  57]+0.149*[#  70]+0.106*[#  56]+0.090*[#  82]+0.066*[#  83]+
          +0.062*[# 199]+0.059*[#  96]+0.054*[#  69]+0.052*[# 173]+0.039*[#  95]+
          +0.030*[# 161]+0.026*[# 174]+0.019*[# 186]+0.015*[# 160]+0.010*[# 159]+
          +0.010*[# 172]+0.010*[# 198]+0.004*[# 185]+0.003*[#  55]+0.003*[#  60]+
          +0.003*[#  73]+0.003*[#  94]+0.002*[#  81]+0.002*[#  59]+0.002*[#  85]+
          +0.002*[#  86]+0.002*[#  99]+0.001*[#  68]+
    |psi|^2 = 1.000
     e =   -48.39186 eV
     psi = 0.290*[# 199]+0.262*[# 173]+0.100*[#  95]+0.078*[#  69]+0.039*[#  70]+
          +0.033*[# 186]+0.032*[#  57]+0.032*[# 174]+0.030*[# 161]+0.025*[# 160]+
          +0.017*[# 198]+0.008*[# 172]+0.006*[# 176]+0.005*[# 159]+0.005*[# 202]+
          +0.005*[#  55]+0.003*[# 185]+0.003*[#  56]+0.002*[#  94]+0.002*[#  83]+
          +0.002*[#  96]+0.002*[#  98]+0.002*[#  72]+0.002*[#  81]+0.001*[# 163]+
    |psi|^2 = 1.000
     e =   -48.38613 eV
     psi = 0.165*[# 198]+0.156*[# 159]+0.128*[#  55]+0.122*[#  94]+0.089*[# 172]+
          +0.085*[#  81]+0.068*[#  68]+0.056*[# 185]+0.014*[#  56]+0.013*[#  69]+
          +0.012*[# 186]+0.012*[# 160]+0.007*[#  96]+0.005*[# 200]+0.005*[#  70]+
          +0.005*[# 199]+0.004*[# 173]+0.004*[# 187]+0.004*[#  95]+0.003*[# 146]+
          +0.003*[#  82]+0.003*[# 145]+0.002*[# 119]+0.002*[# 132]+0.002*[# 107]+
          +0.002*[# 161]+0.002*[# 106]+0.002*[#  57]+0.001*[# 174]+0.001*[# 224]+
    |psi|^2 = 1.000
     e =   -48.38436 eV
     psi = 0.255*[# 186]+0.225*[# 160]+0.099*[#  82]+0.088*[#  56]+0.081*[#  69]+
          +0.047*[#  95]+0.047*[# 185]+0.038*[# 172]+0.034*[#  68]+0.031*[#  81]+
          +0.005*[# 173]+0.004*[#  57]+0.004*[# 163]+0.004*[# 161]+0.004*[# 199]+
          +0.004*[# 189]+0.003*[# 174]+0.002*[# 134]+0.002*[# 238]+0.002*[#  85]+
          +0.001*[#  59]+0.001*[# 212]+0.001*[# 225]+0.001*[#  55]+0.001*[#  30]+
          +0.001*[#  70]+
    |psi|^2 = 1.000
     e =   -48.38341 eV
     psi = 0.283*[# 187]+0.259*[# 200]+0.103*[#  83]+0.092*[#  96]+0.078*[#  70]+
          +0.043*[#  57]+0.023*[# 185]+0.019*[# 172]+0.016*[#  68]+0.015*[#  81]+
          +0.011*[# 186]+0.009*[# 160]+0.005*[# 203]+0.004*[#  82]+0.004*[# 190]+
          +0.004*[# 198]+0.004*[# 199]+0.003*[# 122]+0.002*[#  56]+0.002*[# 226]+
          +0.002*[#  86]+0.002*[# 173]+0.002*[#  99]+0.001*[# 239]+0.001*[# 213]+
          +0.001*[#  18]+
    |psi|^2 = 1.000
     e =   -48.37681 eV
     psi = 0.118*[#  81]+0.109*[# 172]+0.097*[#  68]+0.086*[#  55]+0.079*[#  94]+
          +0.077*[# 198]+0.076*[# 185]+0.065*[# 159]+0.048*[# 186]+0.045*[# 187]+
          +0.043*[# 160]+0.040*[# 200]+0.020*[# 199]+0.018*[# 173]+0.016*[# 161]+
          +0.015*[# 174]+0.009*[#  82]+0.008*[#  96]+0.008*[#  56]+0.008*[#  83]+
          +0.001*[# 163]+
    |psi|^2 = 1.000
     e =   -48.35019 eV
     psi = 0.205*[# 172]+0.204*[#  68]+0.157*[#  94]+0.131*[# 198]+0.101*[#  55]+
          +0.069*[# 159]+0.055*[#  81]+0.038*[# 185]+0.003*[# 187]+0.003*[# 161]+
          +0.002*[# 175]+0.002*[# 186]+0.002*[#  71]+0.002*[# 199]+0.002*[# 173]+
          +0.002*[# 160]+0.002*[# 200]+0.002*[# 201]+0.002*[#  97]+0.001*[#  83]+
          +0.001*[# 174]+0.001*[#  58]+0.001*[# 162]+
    |psi|^2 = 1.000
     e =   -48.34345 eV
     psi = 0.283*[# 159]+0.224*[# 198]+0.202*[#  55]+0.182*[#  94]+0.008*[# 148]+
          +0.007*[#  56]+0.007*[#  96]+0.006*[# 109]+0.006*[# 172]+0.006*[#  68]+
          +0.006*[#  95]+0.005*[# 147]+0.005*[# 108]+0.004*[#  57]+0.003*[# 162]+
          +0.003*[# 239]+0.002*[# 201]+0.002*[#  58]+0.002*[# 122]+0.002*[#   5]+
          +0.002*[# 225]+0.002*[#  97]+0.002*[# 199]+0.002*[# 213]+0.002*[# 226]+
          +0.001*[# 174]+0.001*[#   4]+0.001*[#  18]+0.001*[# 134]+0.001*[# 186]+
          +0.001*[# 212]+0.001*[# 238]+
    |psi|^2 = 1.000
     e =   -48.34076 eV
     psi = 0.334*[# 185]+0.230*[#  81]+0.158*[#  68]+0.139*[# 172]+0.022*[#  55]+
          +0.020*[# 159]+0.008*[# 147]+0.006*[#  83]+0.006*[#  94]+0.006*[# 148]+
          +0.005*[#  82]+0.005*[#  69]+0.004*[# 108]+0.003*[# 198]+0.003*[#  70]+
          +0.003*[#  84]+0.003*[# 109]+0.003*[# 188]+0.002*[# 225]+0.002*[#   4]+
          +0.002*[# 239]+0.001*[#  96]+0.001*[# 174]+0.001*[# 175]+0.001*[# 212]+
          +0.001*[# 238]+0.001*[#   5]+0.001*[#  30]+0.001*[#  71]+0.001*[# 107]+
          +0.001*[# 161]+0.001*[# 122]+0.001*[# 134]+0.001*[# 173]+
    |psi|^2 = 1.000
     e =   -48.32612 eV
     psi = 0.196*[# 133]+0.194*[# 120]+0.058*[#  83]+0.056*[#  82]+0.048*[# 174]+
          +0.047*[# 173]+0.042*[# 199]+0.039*[# 161]+0.039*[#  96]+0.038*[#  56]+
          +0.029*[#  57]+0.028*[# 200]+0.028*[#  95]+0.025*[# 160]+0.024*[# 186]+
          +0.024*[# 187]+0.015*[#  70]+0.015*[#  69]+0.009*[# 123]+0.009*[# 136]+
          +0.004*[# 122]+0.004*[# 134]+0.003*[# 135]+0.003*[# 121]+0.002*[#  55]+
          +0.002*[# 224]+0.002*[# 237]+0.001*[#  94]+0.001*[#  16]+0.001*[#  29]+
    |psi|^2 = 1.000
     e =   -48.31897 eV
     psi = 0.094*[# 134]+0.087*[#  96]+0.083*[# 161]+0.072*[# 107]+0.066*[# 199]+
          +0.063*[#  56]+0.053*[#  81]+0.052*[#  83]+0.045*[# 146]+0.044*[# 121]+
          +0.042*[# 174]+0.036*[# 122]+0.029*[# 147]+0.026*[#  82]+0.025*[# 108]+
          +0.020*[# 173]+0.018*[# 135]+0.017*[# 200]+0.015*[#  94]+0.015*[#  57]+
          +0.011*[# 185]+0.009*[# 148]+0.009*[# 109]+0.007*[# 120]+0.004*[#  55]+
          +0.004*[# 187]+0.004*[# 160]+0.003*[# 198]+0.003*[#  70]+0.003*[#  95]+
          +0.002*[# 133]+0.002*[# 149]+0.002*[# 110]+0.002*[# 137]+0.002*[# 159]+
          +0.002*[# 186]+0.002*[#  69]+0.001*[# 238]+0.001*[#  17]+0.001*[# 164]+
          +0.001*[#  99]+
    |psi|^2 = 1.000
     e =   -48.31730 eV
     psi = 0.147*[# 122]+0.114*[# 186]+0.078*[#  69]+0.073*[# 135]+0.071*[#  95]+
          +0.062*[# 160]+0.043*[# 148]+0.040*[# 109]+0.036*[# 187]+0.029*[#  94]+
          +0.028*[#  82]+0.026*[# 173]+0.025*[#  83]+0.024*[# 134]+0.024*[# 199]+
          +0.023*[#  70]+0.022*[#  56]+0.022*[# 174]+0.012*[# 147]+0.011*[# 108]+
          +0.010*[# 120]+0.009*[# 121]+0.008*[# 107]+0.008*[#  55]+0.006*[#  68]+
          +0.004*[# 146]+0.003*[# 125]+0.002*[# 133]+0.002*[# 198]+0.002*[# 226]+
          +0.002*[#  31]+0.002*[# 239]+0.002*[# 138]+0.001*[# 189]+0.001*[#  57]+
          +0.001*[#  72]+0.001*[#  96]+0.001*[#  44]+0.001*[#  98]+
    |psi|^2 = 1.000
     e =   -48.31637 eV
     psi = 0.141*[# 107]+0.096*[#  57]+0.093*[# 146]+0.090*[# 200]+0.083*[# 187]+
          +0.068*[# 134]+0.059*[#  70]+0.043*[# 121]+0.039*[#  95]+0.037*[# 160]+
          +0.030*[#  55]+0.027*[#  82]+0.022*[# 173]+0.021*[#  68]+0.014*[# 133]+
          +0.013*[# 147]+0.013*[#  81]+0.011*[# 108]+0.009*[# 185]+0.008*[# 159]+
          +0.007*[#  94]+0.007*[# 172]+0.007*[# 186]+0.006*[#  69]+0.006*[# 198]+
          +0.005*[# 149]+0.005*[# 110]+0.004*[# 120]+0.003*[# 135]+0.002*[# 122]+
          +0.002*[#  56]+0.002*[# 137]+0.001*[# 161]+0.001*[#  60]+0.001*[#  42]+
          +0.001*[#  83]+0.001*[# 203]+0.001*[# 225]+
    |psi|^2 = 1.000
     e =   -48.30391 eV
     psi = 0.074*[# 108]+0.073*[# 109]+0.060*[# 121]+0.059*[# 135]+0.047*[# 148]+
          +0.046*[# 147]+0.046*[#  55]+0.043*[#  56]+0.042*[#  96]+0.041*[#  94]+
          +0.040*[# 200]+0.039*[#  57]+0.039*[# 199]+0.039*[#  95]+0.039*[# 160]+
          +0.035*[# 161]+0.031*[# 186]+0.031*[# 187]+0.022*[#  69]+0.022*[#  70]+
          +0.021*[#  83]+0.020*[#  82]+0.019*[# 173]+0.018*[# 174]+0.009*[# 134]+
          +0.009*[# 122]+0.003*[# 198]+0.002*[# 111]+0.002*[# 112]+0.002*[# 124]+
          +0.002*[# 138]+0.002*[# 159]+0.001*[#  43]+0.001*[#  44]+0.001*[# 150]+
          +0.001*[# 151]+
    |psi|^2 = 1.000
     e =   -48.30285 eV
     psi = 0.082*[# 109]+0.082*[# 108]+0.065*[# 187]+0.059*[# 186]+0.054*[# 148]+
          +0.052*[# 147]+0.052*[#  68]+0.049*[#  70]+0.049*[# 135]+0.048*[# 121]+
          +0.046*[#  69]+0.040*[#  82]+0.039*[#  83]+0.034*[#  81]+0.034*[# 173]+
          +0.032*[# 174]+0.019*[#  96]+0.018*[#  56]+0.017*[# 161]+0.017*[# 199]+
          +0.016*[# 160]+0.016*[# 200]+0.013*[#  95]+0.012*[#  57]+0.009*[# 185]+
          +0.004*[# 122]+0.004*[# 134]+0.002*[# 107]+0.002*[# 111]+0.002*[# 112]+
          +0.002*[# 124]+0.002*[# 138]+0.001*[#  43]+0.001*[#  44]+0.001*[# 150]+
          +0.001*[# 151]+0.001*[# 172]+0.001*[#  73]+0.001*[# 189]+0.001*[# 190]+
    |psi|^2 = 1.000
     e =   -48.28978 eV
     psi = 0.222*[# 146]+0.091*[#  81]+0.081*[#  55]+0.080*[# 172]+0.080*[# 185]+
          +0.075*[# 198]+0.067*[# 159]+0.060*[#  94]+0.053*[#  68]+0.038*[# 133]+
          +0.035*[# 120]+0.010*[# 186]+0.008*[# 199]+0.007*[# 174]+0.007*[# 161]+
          +0.006*[# 187]+0.006*[# 200]+0.006*[# 173]+0.005*[# 160]+0.005*[#  56]+
          +0.005*[#  69]+0.004*[#  83]+0.004*[#  96]+0.004*[#  57]+0.004*[#  82]+
          +0.003*[#  95]+0.003*[#  70]+0.002*[# 107]+0.002*[# 149]+0.002*[# 210]+
          +0.002*[# 211]+0.002*[#   2]+0.001*[# 110]+0.001*[#   3]+0.001*[# 223]+
    |psi|^2 = 1.000
     e =   -48.27036 eV
     psi = 0.155*[# 159]+0.151*[#  94]+0.137*[#  55]+0.130*[# 198]+0.107*[# 147]+
          +0.104*[# 148]+0.033*[# 134]+0.031*[# 122]+0.020*[# 121]+0.020*[# 135]+
          +0.010*[# 160]+0.010*[# 161]+0.009*[# 199]+0.008*[# 108]+0.008*[# 109]+
          +0.008*[# 200]+0.004*[#  96]+0.004*[#  95]+0.004*[#  56]+0.003*[#  57]+
          +0.003*[#  97]+0.003*[# 162]+0.003*[#  58]+0.003*[# 201]+0.002*[# 150]+
          +0.002*[# 151]+0.002*[# 212]+0.002*[# 213]+
    |psi|^2 = 1.000
     e =   -48.26892 eV
     psi = 0.177*[# 185]+0.139*[#  68]+0.131*[# 172]+0.128*[#  81]+0.106*[# 148]+
          +0.103*[# 147]+0.032*[# 134]+0.031*[# 122]+0.021*[# 135]+0.019*[# 121]+
          +0.012*[# 186]+0.010*[# 187]+0.009*[# 109]+0.008*[# 108]+0.008*[# 174]+
          +0.008*[# 173]+0.004*[#  69]+0.004*[#  70]+0.004*[#  82]+0.004*[#  83]+
          +0.003*[# 188]+0.003*[# 175]+0.003*[#  71]+0.003*[#  84]+0.002*[# 150]+
          +0.002*[# 151]+0.002*[# 212]+0.002*[# 213]+
    |psi|^2 = 1.000
     e =   -16.96662 eV
     psi = 0.535*[# 267]+0.155*[# 261]+0.102*[# 271]+0.087*[# 272]+0.029*[# 265]+
          +0.026*[# 266]+0.016*[# 253]+0.012*[# 270]+0.008*[# 269]+0.005*[# 249]+
          +0.003*[# 240]+0.003*[# 262]+0.003*[# 264]+0.001*[# 256]+0.001*[# 268]+
          +0.001*[# 227]+
    |psi|^2 = 0.992
     e =   -16.51010 eV
     psi = 0.557*[# 261]+0.179*[# 267]+0.093*[# 266]+0.090*[# 265]+0.030*[# 272]+
          +0.016*[# 264]+0.008*[# 262]+0.008*[# 271]+0.004*[# 269]+0.002*[# 270]+
          +0.002*[# 253]+
    |psi|^2 = 0.992
     e =    -4.81134 eV
     psi = 0.340*[# 269]+0.173*[# 270]+0.125*[# 271]+0.110*[# 264]+0.099*[# 272]+
          +0.040*[# 265]+0.035*[# 262]+0.028*[# 263]+0.018*[# 266]+0.006*[# 268]+
          +0.002*[# 254]+0.001*[# 257]+
    |psi|^2 = 0.984
     e =    -4.20531 eV
     psi = 0.265*[# 263]+0.205*[# 262]+0.130*[# 266]+0.109*[# 269]+0.099*[# 265]+
          +0.080*[# 264]+0.030*[# 270]+0.029*[# 272]+0.025*[# 271]+0.003*[# 268]+
          +0.002*[# 210]+
    |psi|^2 = 0.985
     e =    -2.39181 eV
     psi = 0.054*[# 132]+0.054*[# 106]+0.054*[# 119]+0.054*[# 145]+0.046*[# 184]+
          +0.047*[# 197]+0.046*[# 158]+0.046*[# 171]+0.045*[#  54]+0.045*[#  67]+
          +0.045*[#  80]+0.045*[#  93]+0.029*[# 249]+0.027*[# 236]+0.026*[# 210]+
          +0.026*[# 223]+0.023*[#   2]+0.023*[#  15]+0.023*[#  28]+0.023*[#  41]+
          +0.011*[# 268]+0.009*[# 214]+0.008*[# 227]+0.008*[#   6]+0.008*[#  19]+
          +0.008*[#  32]+0.008*[#  45]+0.008*[# 240]+0.008*[# 269]+0.008*[# 105]+
          +0.008*[# 118]+0.008*[# 131]+0.008*[# 144]+0.006*[# 157]+0.006*[# 183]+
          +0.006*[# 170]+0.006*[# 196]+0.006*[# 253]+0.005*[#  53]+0.005*[#  66]+
          +0.005*[#  79]+0.005*[#  92]+0.005*[# 264]+0.004*[# 270]+0.003*[#  58]+
          +0.003*[#  71]+0.003*[#  84]+0.003*[#  97]+0.003*[# 175]+0.003*[# 201]+
          +0.003*[# 162]+0.002*[# 188]+0.002*[# 209]+0.002*[# 222]+0.002*[# 235]+
          +0.001*[# 248]+0.001*[#   1]+0.001*[#  14]+0.001*[#  27]+0.001*[#  40]+
          +0.001*[# 265]+0.001*[# 267]+0.001*[# 261]+
    |psi|^2 = 0.997
     e =    -1.90586 eV
     psi = 0.206*[# 269]+0.174*[# 270]+0.134*[# 264]+0.125*[# 268]+0.061*[# 267]+
          +0.043*[# 262]+0.038*[# 272]+0.031*[# 271]+0.024*[# 261]+0.018*[# 263]+
          +0.017*[# 253]+0.015*[# 256]+0.012*[# 249]+0.010*[# 266]+0.008*[# 265]+
          +0.005*[# 188]+0.004*[#  54]+0.004*[#  67]+0.003*[#  80]+0.004*[#  93]+
          +0.003*[# 162]+0.003*[# 201]+0.003*[# 149]+0.002*[#   2]+0.002*[#  15]+
          +0.002*[#  28]+0.002*[# 119]+0.002*[#  41]+0.002*[# 132]+0.002*[# 106]+
          +0.002*[# 145]+0.002*[# 175]+0.002*[# 240]+0.002*[# 255]+0.001*[# 136]+
          +0.001*[# 242]+0.001*[# 258]+
    |psi|^2 = 0.992
     e =    -0.90573 eV
     psi = 0.055*[# 123]+0.054*[# 149]+0.054*[# 136]+0.053*[# 110]+0.033*[# 223]+
          +0.032*[# 249]+0.031*[# 236]+0.031*[#   2]+0.031*[#  15]+0.031*[#  28]+
          +0.031*[#  41]+0.029*[# 210]+0.024*[# 184]+0.023*[#  54]+0.023*[#  80]+
          +0.023*[#  67]+0.023*[#  93]+0.023*[# 158]+0.022*[# 197]+0.022*[# 171]+
          +0.019*[# 175]+0.018*[# 201]+0.018*[# 162]+0.018*[#  58]+0.018*[#  84]+
          +0.018*[#  97]+0.018*[# 264]+0.018*[#  71]+0.017*[# 188]+0.014*[# 268]+
          +0.009*[# 263]+0.008*[# 270]+0.006*[# 269]+0.006*[# 262]+0.005*[# 170]+
          +0.005*[#  53]+0.005*[#  66]+0.005*[# 196]+0.005*[#  79]+0.005*[#  92]+
          +0.005*[# 157]+0.005*[# 222]+0.005*[# 267]+0.005*[# 183]+0.005*[# 209]+
          +0.005*[#   1]+0.005*[#  14]+0.005*[#  27]+0.005*[#  40]+0.005*[# 235]+
          +0.004*[# 248]+0.003*[# 253]+0.003*[# 191]+0.003*[#  61]+0.003*[#  74]+
          +0.003*[#  87]+0.003*[# 100]+0.003*[# 165]+0.003*[# 204]+0.003*[# 178]+
          +0.002*[# 261]+0.002*[#   6]+0.002*[#  19]+0.002*[#  32]+0.002*[#  45]+
          +0.002*[# 107]+0.002*[# 120]+0.002*[# 133]+0.002*[# 146]+0.001*[# 214]+
          +0.001*[# 240]+0.001*[# 227]+0.001*[# 271]+0.001*[# 217]+0.001*[# 272]+
    |psi|^2 = 0.996
     e =    -0.68874 eV
     psi = 0.346*[# 264]+0.180*[# 262]+0.139*[# 268]+0.121*[# 270]+0.077*[# 261]+
          +0.020*[# 256]+0.020*[# 266]+0.017*[# 265]+0.009*[# 269]+0.008*[# 253]+
          +0.007*[# 267]+0.005*[# 249]+0.004*[# 210]+0.004*[# 236]+0.002*[# 110]+
          +0.002*[# 272]+0.001*[# 136]+0.001*[# 271]+
    |psi|^2 = 0.989
     e =     0.20327 eV
     psi = 0.435*[# 268]+0.199*[# 270]+0.042*[# 269]+0.039*[# 263]+0.034*[# 262]+
          +0.020*[# 249]+0.020*[# 256]+0.015*[# 258]+0.014*[# 267]+0.009*[# 257]+
          +0.007*[#  71]+0.007*[#  97]+0.006*[#  58]+0.006*[#  84]+0.006*[# 240]+
          +0.005*[# 253]+0.005*[#  41]+0.005*[# 152]+0.005*[# 264]+0.004*[#   2]+
          +0.004*[# 175]+0.004*[#  28]+0.004*[#  15]+0.004*[# 255]+0.004*[# 171]+
          +0.003*[# 110]+0.003*[# 201]+0.003*[# 162]+0.003*[# 245]+0.003*[# 188]+
          +0.003*[# 123]+0.002*[# 233]+0.002*[# 136]+0.002*[# 261]+0.002*[# 227]+
          +0.002*[# 246]+0.002*[# 119]+0.002*[# 197]+0.002*[# 132]+0.002*[# 163]+
          +0.002*[# 178]+0.002*[# 189]+0.002*[# 214]+0.002*[# 231]+0.002*[# 236]+
          +0.002*[# 254]+0.001*[# 106]+0.001*[#  67]+0.001*[#  22]+0.001*[#  35]+
          +0.001*[# 113]+
    |psi|^2 = 0.993
     e =     0.68585 eV
     psi = 0.067*[#  77]+0.065*[#  90]+0.058*[# 194]+0.055*[# 181]+0.039*[#  54]+
          +0.038*[#  93]+0.035*[# 140]+0.034*[# 127]+0.034*[# 114]+0.033*[# 128]+
          +0.033*[# 197]+0.033*[# 158]+0.032*[# 115]+0.032*[# 141]+0.032*[# 153]+
          +0.030*[# 154]+0.017*[#  36]+0.017*[#  10]+0.017*[#  23]+0.017*[#  49]+
          +0.016*[#  24]+0.016*[#  11]+0.016*[#  37]+0.016*[#  50]+0.015*[# 244]+
          +0.015*[# 218]+0.015*[# 232]+0.015*[# 219]+0.014*[# 231]+0.013*[# 245]+
          +0.013*[#  61]+0.013*[# 100]+0.013*[# 204]+0.012*[# 165]+0.012*[# 257]+
          +0.011*[# 258]+0.003*[#   7]+0.003*[#  20]+0.003*[#  33]+0.003*[#  46]+
          +0.003*[# 215]+0.003*[# 228]+0.003*[# 241]+0.003*[#   8]+0.003*[#  21]+
          +0.003*[#  34]+0.003*[#  47]+0.003*[# 216]+0.003*[# 229]+0.003*[# 242]+
          +0.002*[# 254]+0.002*[# 255]+0.001*[#  53]+0.001*[#  92]+
    |psi|^2 = 0.998
     e =     0.68707 eV
     psi = 0.066*[# 103]+0.065*[#  64]+0.055*[# 168]+0.055*[# 207]+0.040*[#  80]+
          +0.037*[#  67]+0.035*[# 128]+0.034*[# 115]+0.034*[# 141]+0.033*[# 140]+
          +0.032*[# 127]+0.032*[# 114]+0.032*[# 171]+0.032*[# 184]+0.032*[# 154]+
          +0.030*[# 153]+0.017*[#  24]+0.017*[#  11]+0.017*[#  37]+0.017*[#  50]+
          +0.016*[#  36]+0.016*[#  10]+0.016*[#  23]+0.016*[#  49]+0.015*[# 232]+
          +0.015*[# 219]+0.015*[# 244]+0.014*[# 218]+0.014*[#  87]+0.013*[# 245]+
          +0.013*[# 191]+0.012*[# 231]+0.012*[#  74]+0.012*[# 178]+0.011*[# 258]+
          +0.010*[# 257]+0.003*[# 242]+0.003*[#   8]+0.003*[#  21]+0.003*[#  34]+
          +0.003*[#  47]+0.003*[# 216]+0.003*[# 228]+0.003*[# 229]+0.003*[#   7]+
          +0.003*[#  20]+0.003*[#  33]+0.003*[#  46]+0.003*[# 215]+0.003*[# 241]+
          +0.002*[# 255]+0.002*[# 263]+0.002*[# 254]+0.002*[# 175]+0.002*[#  84]+
          +0.001*[#  66]+0.001*[#  79]+0.001*[# 268]+
    |psi|^2 = 0.998
     e =     0.81674 eV
     psi = 0.133*[# 155]+0.107*[# 116]+0.070*[# 132]+0.069*[# 119]+0.024*[# 167]+
          +0.024*[# 206]+0.024*[# 180]+0.024*[# 193]+0.023*[#  63]+0.024*[#  76]+
          +0.023*[#  89]+0.023*[# 102]+0.023*[# 166]+0.023*[# 192]+0.023*[# 179]+
          +0.023*[# 205]+0.023*[#  62]+0.023*[#  75]+0.023*[#  88]+0.023*[# 101]+
          +0.017*[# 243]+0.016*[# 230]+0.015*[#  35]+0.014*[#  22]+0.008*[#  60]+
          +0.008*[#  73]+0.008*[#  86]+0.008*[#  99]+0.008*[# 164]+0.008*[# 177]+
          +0.008*[# 190]+0.008*[# 203]+0.008*[#  59]+0.008*[#  72]+0.008*[#  85]+
          +0.008*[#  98]+0.007*[# 163]+0.008*[# 176]+0.008*[# 189]+0.007*[# 202]+
          +0.006*[#  12]+0.006*[# 220]+0.005*[# 118]+0.005*[# 131]+0.004*[# 126]+
          +0.004*[# 139]+0.004*[# 259]+0.003*[#  51]+0.002*[# 227]+0.002*[# 240]+
          +0.002*[#  19]+0.002*[#  32]+0.002*[#  15]+0.002*[#  28]+0.001*[# 223]+
          +0.001*[# 236]+
    |psi|^2 = 0.998
     e =     0.82520 eV
     psi = 0.113*[# 129]+0.113*[# 142]+0.082*[# 106]+0.048*[# 145]+0.036*[# 217]+
          +0.027*[#   9]+0.022*[#  88]+0.022*[# 166]+0.022*[# 192]+0.022*[#  62]+
          +0.022*[#  75]+0.022*[# 101]+0.022*[# 167]+0.022*[# 179]+0.022*[# 180]+
          +0.022*[# 205]+0.022*[# 193]+0.022*[# 206]+0.022*[#  63]+0.022*[#  76]+
          +0.022*[#  89]+0.022*[# 102]+0.018*[# 152]+0.007*[#  59]+0.007*[#  72]+
          +0.007*[#  85]+0.007*[#  98]+0.007*[#  73]+0.007*[#  99]+0.007*[# 163]+
          +0.007*[# 176]+0.007*[# 189]+0.007*[# 202]+0.007*[#  60]+0.007*[#  86]+
          +0.006*[# 164]+0.006*[# 177]+0.006*[# 190]+0.006*[# 203]+0.005*[# 105]+
          +0.005*[#  25]+0.005*[#  38]+0.004*[#  48]+0.004*[# 214]+0.005*[# 246]+
          +0.004*[# 233]+0.004*[# 169]+0.004*[# 182]+0.004*[# 195]+0.004*[# 208]+
          +0.003*[# 144]+0.003*[#   6]+0.002*[#  65]+0.003*[#  78]+0.002*[#  91]+
          +0.002*[# 104]+0.002*[# 249]+0.002*[#  41]+0.002*[#   2]+0.002*[# 236]+
          +0.001*[# 165]+0.001*[# 210]+0.001*[# 178]+0.001*[# 204]+0.001*[# 223]+
          +0.001*[# 191]+
    |psi|^2 = 0.998
     e =     0.83631 eV
     psi = 0.064*[# 139]+0.060*[# 126]+0.040*[# 256]+0.036*[# 188]+0.035*[#  84]+
          +0.033*[# 162]+0.032*[#  58]+0.032*[#  97]+0.032*[# 201]+0.030*[#  71]+
          +0.029*[# 236]+0.028*[# 175]+0.027*[# 145]+0.025*[# 268]+0.024*[#  28]+
          +0.023*[#  15]+0.022*[# 223]+0.020*[#  48]+0.020*[# 270]+0.019*[# 263]+
          +0.018*[# 113]+0.017*[# 152]+0.016*[# 210]+0.014*[#  41]+0.012*[#   2]+
          +0.011*[# 217]+0.011*[#   9]+0.010*[# 264]+0.009*[#  64]+0.008*[# 103]+
          +0.008*[#  67]+0.007*[# 106]+0.007*[# 169]+0.006*[# 195]+0.006*[# 182]+
          +0.006*[# 208]+0.006*[# 249]+0.005*[# 258]+0.005*[# 171]+0.005*[# 191]+
          +0.004*[#  65]+0.005*[#  78]+0.004*[#  91]+0.005*[# 104]+0.005*[# 144]+
          +0.004*[#  74]+0.004*[# 178]+0.004*[# 168]+0.003*[# 165]+0.003*[#  11]+
          +0.003*[#  22]+0.003*[# 142]+0.003*[# 204]+0.003*[#  24]+0.003*[#  35]+
          +0.003*[#  37]+0.003*[#  50]+0.003*[# 207]+0.003*[#  80]+0.003*[#  45]+
          +0.003*[# 257]+0.002*[# 112]+0.002*[# 119]+0.002*[# 125]+0.003*[# 132]+
          +0.002*[# 100]+0.002*[# 129]+0.002*[# 138]+0.002*[# 151]+0.002*[#  61]+
          +0.002*[# 118]+0.002*[#  87]+0.002*[# 131]+0.002*[# 209]+0.002*[# 245]+
          +0.002*[# 105]+0.002*[# 235]+0.002*[# 262]+0.002*[# 269]+0.002*[#  10]+
          +0.002*[#  23]+0.002*[#  36]+0.002*[#  49]+0.002*[# 230]+0.001*[#   1]+
          +0.001*[#  14]+0.001*[#  27]+0.002*[# 222]+0.001*[#  81]+0.001*[# 185]+
          +0.001*[# 197]+0.001*[# 214]+0.001*[#   6]+0.001*[# 111]+0.001*[# 124]+
          +0.001*[# 137]+0.001*[# 150]+0.001*[#  55]+0.001*[#  94]+0.001*[# 159]+
          +0.001*[#  93]+0.001*[# 198]+
    |psi|^2 = 0.996
     e =     0.87924 eV
     psi = 0.084*[# 194]+0.072*[#  90]+0.061*[# 181]+0.054*[#  77]+0.042*[# 158]+
          +0.041*[# 197]+0.037*[#  54]+0.036*[#  93]+0.026*[# 137]+0.026*[# 111]+
          +0.026*[# 124]+0.026*[# 150]+0.021*[# 244]+0.021*[# 125]+0.020*[# 112]+
          +0.020*[# 138]+0.020*[# 218]+0.020*[# 151]+0.020*[# 231]+0.020*[# 257]+
          +0.018*[#  10]+0.018*[#  23]+0.018*[#  36]+0.018*[#  49]+0.017*[# 232]+
          +0.017*[# 219]+0.016*[# 245]+0.015*[# 258]+0.014*[#  11]+0.014*[#  24]+
          +0.014*[#  37]+0.014*[#  50]+0.005*[# 228]+0.005*[# 215]+0.005*[# 241]+
          +0.005*[# 157]+0.005*[# 196]+0.004*[#  53]+0.004*[#  92]+0.004*[# 242]+
          +0.004*[#   7]+0.004*[#  20]+0.004*[#  33]+0.004*[#  46]+0.004*[# 216]+
          +0.004*[# 229]+0.003*[# 254]+0.003*[#   8]+0.003*[#  21]+0.003*[#  34]+
          +0.003*[#  47]+0.003*[# 255]+0.001*[#  97]+0.001*[# 207]+0.001*[# 108]+
          +0.001*[# 121]+0.001*[# 134]+0.001*[# 201]+0.001*[# 103]+0.001*[# 147]+
    |psi|^2 = 0.996
     e =     0.88342 eV
     psi = 0.069*[# 168]+0.066*[# 207]+0.055*[#  64]+0.052*[# 103]+0.041*[# 184]+
          +0.035*[# 171]+0.032*[#  80]+0.030*[#  67]+0.023*[# 125]+0.023*[# 112]+
          +0.023*[# 138]+0.023*[# 151]+0.020*[# 232]+0.019*[# 219]+0.019*[# 137]+
          +0.019*[# 111]+0.019*[# 124]+0.018*[# 150]+0.017*[# 245]+0.016*[# 244]+
          +0.015*[#  11]+0.015*[#  24]+0.015*[#  37]+0.015*[#  50]+0.015*[# 218]+
          +0.014*[# 258]+0.014*[# 231]+0.013*[#  10]+0.013*[# 126]+0.013*[#  23]+
          +0.013*[#  36]+0.013*[#  49]+0.013*[# 139]+0.012*[# 257]+0.006*[# 242]+
          +0.005*[#  71]+0.005*[# 195]+0.005*[# 216]+0.005*[# 229]+0.005*[# 175]+
          +0.005*[# 170]+0.004*[# 183]+0.004*[# 228]+0.004*[# 268]+0.004*[#  66]+
          +0.004*[# 169]+0.004*[# 215]+0.004*[# 241]+0.004*[# 255]+0.004*[# 208]+
          +0.004*[#  78]+0.004*[#  65]+0.004*[#  79]+0.004*[# 104]+0.003*[#   8]+
          +0.003*[#  21]+0.003*[#  34]+0.003*[#  47]+0.003*[#  91]+0.004*[# 256]+
          +0.003*[# 145]+0.003*[# 182]+0.003*[# 254]+0.003*[# 270]+0.003*[#   7]+
          +0.003*[#  20]+0.003*[#  33]+0.003*[#  46]+0.002*[# 106]+0.002*[# 223]+
          +0.002*[#  15]+0.002*[#  28]+0.002*[#  48]+0.002*[#  97]+0.002*[# 236]+
          +0.002*[#   9]+0.002*[#  58]+0.002*[# 201]+0.002*[# 162]+0.002*[# 191]+
          +0.001*[# 217]+0.001*[#  74]+0.001*[# 109]+0.001*[# 122]+0.001*[# 135]+
          +0.001*[# 148]+0.001*[# 165]+
    |psi|^2 = 0.996
     e =     0.91363 eV
     psi = 0.084*[# 116]+0.071*[# 142]+0.071*[# 181]+0.069*[# 129]+0.067*[#  77]+
          +0.059*[# 103]+0.059*[# 207]+0.058*[#  64]+0.057*[# 168]+0.056*[# 155]+
          +0.050*[#  90]+0.046*[# 194]+0.039*[# 220]+0.031*[# 233]+0.030*[#  51]+
          +0.030*[# 246]+0.030*[#  25]+0.029*[#  38]+0.028*[#  12]+0.019*[# 259]+
    |psi|^2 = 0.995
     e =     0.92736 eV
     psi = 0.055*[# 243]+0.055*[#  22]+0.054*[#  35]+0.052*[# 230]+0.045*[#  65]+
          +0.045*[#  78]+0.045*[#  91]+0.045*[# 104]+0.044*[# 139]+0.042*[# 126]+
          +0.040*[# 182]+0.039*[# 169]+0.039*[# 208]+0.038*[# 195]+0.028*[# 210]+
          +0.022*[# 113]+0.021*[#   2]+0.018*[# 119]+0.017*[# 132]+0.017*[# 268]+
          +0.016*[#  41]+0.010*[# 152]+0.009*[# 145]+0.009*[#  87]+0.008*[#  61]+
          +0.008*[# 100]+0.008*[# 165]+0.008*[# 204]+0.007*[# 178]+0.007*[#  74]+
          +0.007*[# 191]+0.007*[# 249]+0.006*[#  19]+0.006*[#  32]+0.006*[#  71]+
          +0.006*[# 175]+0.006*[# 162]+0.006*[# 201]+0.005*[# 227]+0.005*[# 256]+
          +0.005*[#  58]+0.005*[#  97]+0.005*[# 188]+0.005*[# 240]+0.004*[#  84]+
          +0.003*[# 207]+0.003*[# 262]+0.003*[# 106]+0.003*[# 184]+0.002*[# 270]+
          +0.002*[# 246]+0.002*[# 168]+0.002*[# 253]+0.001*[# 233]+0.001*[# 129]+
          +0.001*[# 103]+0.001*[# 118]+0.001*[# 131]+0.001*[# 217]+
    |psi|^2 = 0.998
     e =     0.95718 eV
     psi = 0.125*[# 113]+0.088*[# 152]+0.057*[#  48]+0.045*[#  61]+0.045*[# 100]+
          +0.043*[#  87]+0.042*[# 204]+0.042*[#  74]+0.042*[# 165]+0.039*[# 191]+
          +0.039*[# 178]+0.038*[# 256]+0.035*[#   9]+0.027*[# 126]+0.026*[# 217]+
          +0.024*[# 139]+0.012*[#  65]+0.012*[#  78]+0.012*[#  91]+0.012*[# 104]+
          +0.010*[# 169]+0.010*[# 263]+0.010*[# 182]+0.009*[#  22]+0.010*[#  35]+
          +0.010*[# 195]+0.009*[# 208]+0.007*[# 230]+0.007*[# 145]+0.006*[# 243]+
          +0.006*[# 253]+0.006*[# 129]+0.005*[# 119]+0.005*[# 132]+0.005*[#  45]+
          +0.005*[# 262]+0.004*[#  28]+0.004*[# 142]+0.004*[# 236]+0.004*[#  15]+
          +0.004*[# 214]+0.003*[#   6]+0.002*[# 264]+0.002*[# 240]+0.002*[# 223]+
          +0.002*[# 246]+0.002*[# 166]+0.002*[# 179]+0.002*[# 192]+0.002*[# 205]+
          +0.002*[# 268]+0.002*[# 249]+0.001*[#  62]+0.001*[#  75]+0.001*[#  88]+
          +0.001*[# 101]+0.001*[# 210]+0.001*[#  63]+0.001*[#  76]+0.001*[#  89]+
          +0.001*[# 102]+0.001*[# 233]+0.001*[# 270]+0.001*[# 193]+0.001*[# 206]+
    |psi|^2 = 0.995
     e =     1.05001 eV
     psi = 0.092*[# 130]+0.092*[# 143]+0.091*[# 156]+0.090*[# 117]+0.034*[#  74]+
          +0.034*[#  87]+0.033*[# 260]+0.032*[#  13]+0.032*[#  26]+0.032*[#  39]+
          +0.032*[#  52]+0.032*[# 247]+0.031*[# 191]+0.031*[# 204]+0.031*[# 234]+
          +0.031*[# 221]+0.031*[# 165]+0.030*[# 178]+0.028*[# 100]+0.027*[#  61]+
          +0.014*[# 171]+0.013*[#  54]+0.013*[#  67]+0.013*[#  93]+0.013*[# 184]+
          +0.013*[#  80]+0.012*[# 197]+0.012*[# 158]+0.007*[# 263]+0.005*[# 262]+
          +0.002*[#  58]+0.002*[#  97]+0.001*[# 162]+0.001*[# 201]+
    |psi|^2 = 0.999
     e =     1.14065 eV
     psi = 0.372*[# 263]+0.217*[# 262]+0.074*[# 264]+0.062*[# 270]+0.019*[# 259]+
          +0.016*[# 220]+0.014*[# 223]+0.013*[#  48]+0.013*[#   9]+0.011*[# 126]+
          +0.011*[# 236]+0.009*[# 240]+0.007*[#  15]+0.007*[# 268]+0.006*[#  61]+
          +0.006*[# 100]+0.004*[#  35]+0.004*[# 243]+0.004*[#  84]+0.003*[#  65]+
          +0.003*[#  91]+0.003*[# 164]+0.003*[# 176]+0.003*[#  78]+0.003*[# 202]+
          +0.003*[# 104]+0.003*[# 177]+0.003*[#  71]+0.003*[# 163]+0.003*[# 190]+
          +0.003*[# 203]+0.003*[#  58]+0.003*[#  97]+0.003*[# 189]+0.003*[# 191]+
          +0.002*[# 178]+0.002*[# 193]+0.002*[# 117]+0.002*[# 130]+0.002*[# 143]+
          +0.002*[# 156]+0.002*[# 167]+0.002*[# 258]+0.002*[#  22]+0.002*[#  51]+
          +0.002*[# 179]+0.002*[# 180]+0.002*[# 205]+0.002*[# 206]+0.002*[#  28]+
          +0.002*[# 106]+0.002*[# 145]+0.001*[# 149]+0.001*[#   6]+0.001*[#  45]+
          +0.001*[#  41]+0.001*[# 110]+0.001*[# 166]+
    |psi|^2 = 0.994
     e =     1.30716 eV
     psi = 0.069*[# 256]+0.063*[# 243]+0.059*[#  22]+0.056*[# 230]+0.054*[#  35]+
          +0.052*[# 217]+0.051*[#   9]+0.044*[#  48]+0.040*[# 191]+0.040*[# 165]+
          +0.040*[# 204]+0.039*[# 178]+0.037*[#  74]+0.036*[#  87]+0.036*[#  61]+
          +0.036*[# 100]+0.015*[# 223]+0.011*[# 136]+0.011*[# 249]+0.010*[#   2]+
          +0.009*[# 123]+0.008*[# 110]+0.008*[# 149]+0.008*[# 262]+0.008*[#  28]+
          +0.008*[# 188]+0.007*[# 162]+0.007*[# 175]+0.007*[# 201]+0.007*[# 263]+
          +0.006*[# 214]+0.006*[#  58]+0.006*[#  71]+0.006*[#  84]+0.006*[#  97]+
          +0.005*[# 240]+0.005*[#  19]+0.005*[# 210]+0.005*[# 227]+0.004*[# 220]+
          +0.004*[#  41]+0.003*[#  45]+0.003*[# 259]+0.003*[#  32]+0.003*[# 253]+
          +0.003*[#   6]+0.002*[#  15]+0.002*[#  54]+0.002*[#  67]+0.002*[#  93]+
          +0.002*[#  80]+0.001*[#  25]+0.001*[#  51]+0.001*[# 126]+0.001*[# 171]+
          +0.001*[# 184]+0.001*[# 197]+0.001*[# 158]+0.001*[# 236]+
    |psi|^2 = 0.996
     e =     1.39379 eV
     psi = 0.180*[#  51]+0.084*[#  12]+0.051*[# 220]+0.051*[#  28]+0.049*[#  15]+
          +0.035*[# 139]+0.027*[# 263]+0.027*[# 126]+0.023*[#  59]+0.023*[#  72]+
          +0.023*[#  85]+0.023*[#  98]+0.022*[# 262]+0.014*[#  60]+0.014*[#  73]+
          +0.014*[#  86]+0.014*[#  99]+0.014*[# 259]+0.014*[# 236]+0.013*[#  38]+
          +0.013*[#  62]+0.013*[#  88]+0.013*[#  75]+0.013*[# 101]+0.011*[# 223]+
          +0.009*[# 189]+0.009*[# 163]+0.009*[# 176]+0.009*[# 202]+0.008*[# 155]+
          +0.007*[#  63]+0.007*[#  76]+0.007*[#  89]+0.007*[# 102]+0.006*[# 190]+
          +0.006*[# 203]+0.006*[# 164]+0.006*[# 177]+0.006*[# 119]+0.005*[# 132]+
          +0.005*[# 116]+0.005*[# 233]+0.005*[# 230]+0.004*[#  77]+0.004*[# 103]+
          +0.004*[# 240]+0.004*[#  64]+0.004*[#  90]+0.004*[# 118]+0.003*[#  32]+
          +0.003*[# 131]+0.003*[# 264]+0.003*[#  27]+0.003*[#  14]+0.003*[# 168]+
          +0.003*[# 270]+0.002*[#  19]+0.002*[# 181]+0.002*[# 194]+0.002*[# 207]+
          +0.002*[# 227]+0.001*[#  22]+0.001*[#   2]+0.001*[# 166]+0.001*[# 192]+
          +0.001*[# 235]+0.001*[# 246]+0.001*[#  56]+0.001*[#  69]+0.001*[#  82]+
          +0.001*[#  95]+0.001*[# 217]+0.001*[# 179]+0.001*[# 205]+
    |psi|^2 = 0.997
     e =     1.40561 eV
     psi = 0.158*[#  25]+0.148*[#  38]+0.068*[#  41]+0.050*[#   2]+0.040*[# 152]+
          +0.027*[# 246]+0.027*[#  60]+0.027*[#  73]+0.026*[#  86]+0.026*[#  99]+
          +0.023*[# 233]+0.022*[# 113]+0.018*[#  59]+0.018*[#  72]+0.018*[#  85]+
          +0.018*[#  98]+0.014*[#  63]+0.014*[#  76]+0.014*[#  89]+0.014*[# 102]+
          +0.012*[# 210]+0.009*[# 129]+0.009*[#  75]+0.009*[# 101]+0.009*[# 142]+
          +0.009*[#  62]+0.009*[#  88]+0.009*[# 164]+0.009*[# 177]+0.009*[# 190]+
          +0.009*[# 203]+0.009*[# 268]+0.007*[# 145]+0.007*[# 176]+0.007*[# 202]+
          +0.006*[# 163]+0.006*[# 189]+0.006*[# 106]+0.006*[# 249]+0.005*[# 253]+
          +0.004*[# 105]+0.004*[# 144]+0.003*[#  40]+0.003*[#  45]+0.003*[#   1]+
          +0.003*[#   6]+0.002*[#  51]+0.002*[#  22]+0.001*[#  12]+0.001*[#  35]+
          +0.001*[#  65]+0.001*[#  78]+0.001*[#  91]+0.001*[# 104]+0.001*[#  57]+
          +0.001*[#  70]+0.001*[#  83]+0.001*[#  96]+0.001*[# 262]+
    |psi|^2 = 0.998
     e =     1.44580 eV
     psi = 0.186*[#  12]+0.143*[# 220]+0.053*[#  38]+0.053*[# 246]+0.051*[#  25]+
          +0.044*[# 233]+0.037*[#  90]+0.037*[# 103]+0.036*[#  64]+0.036*[#  77]+
          +0.035*[# 168]+0.035*[# 181]+0.034*[# 207]+0.034*[# 194]+0.014*[#  15]+
          +0.013*[#  28]+0.007*[# 223]+0.007*[# 236]+0.006*[# 243]+0.006*[#  63]+
          +0.006*[#  76]+0.006*[#  89]+0.006*[# 102]+0.005*[#  62]+0.005*[#  75]+
          +0.005*[#  88]+0.005*[# 101]+0.004*[# 167]+0.004*[# 180]+0.004*[# 262]+
          +0.004*[# 193]+0.004*[# 206]+0.004*[#  35]+0.004*[# 263]+0.003*[# 166]+
          +0.004*[# 192]+0.003*[# 179]+0.003*[# 205]+0.003*[# 259]+0.003*[#  59]+
          +0.003*[#  60]+0.003*[#  72]+0.003*[#  73]+0.003*[#  85]+0.003*[#  86]+
          +0.003*[#  98]+0.003*[#  99]+0.002*[# 230]+0.002*[#  22]+0.001*[# 164]+
          +0.001*[# 177]+0.001*[# 190]+0.001*[# 203]+0.001*[# 123]+
    |psi|^2 = 0.996
     e =     1.48584 eV
     psi = 0.183*[# 233]+0.152*[# 246]+0.052*[# 210]+0.052*[#  25]+0.042*[# 249]+
          +0.037*[#  38]+0.029*[# 256]+0.022*[# 167]+0.022*[# 180]+0.021*[# 206]+
          +0.020*[# 193]+0.018*[# 205]+0.017*[# 179]+0.016*[# 166]+0.016*[# 192]+
          +0.016*[#   2]+0.014*[# 164]+0.014*[# 177]+0.014*[#  48]+0.014*[# 203]+
          +0.014*[# 190]+0.014*[# 268]+0.011*[# 176]+0.011*[# 202]+0.011*[# 163]+
          +0.011*[# 189]+0.010*[#  89]+0.009*[# 102]+0.009*[#  63]+0.009*[#  76]+
          +0.009*[# 217]+0.009*[#  41]+0.007*[#  62]+0.007*[#  75]+0.008*[#  88]+
          +0.007*[#   9]+0.007*[# 101]+0.006*[# 152]+0.006*[# 253]+0.003*[# 110]+
          +0.002*[# 209]+0.002*[# 248]+0.002*[# 259]+0.002*[#  65]+0.002*[#  78]+
          +0.002*[#  91]+0.002*[# 104]+0.001*[# 129]+0.001*[#  35]+0.001*[# 142]+
          +0.001*[# 149]+0.001*[# 113]+
    |psi|^2 = 0.998
     e =     1.49591 eV
     psi = 0.253*[# 259]+0.085*[#  51]+0.039*[# 220]+0.039*[# 223]+0.038*[# 236]+
          +0.037*[# 246]+0.023*[# 263]+0.022*[#  38]+0.019*[# 262]+0.018*[# 243]+
          +0.018*[# 166]+0.018*[# 192]+0.016*[# 179]+0.016*[# 205]+0.015*[# 207]+
          +0.014*[# 233]+0.014*[# 181]+0.014*[# 194]+0.014*[# 168]+0.011*[# 163]+
          +0.011*[# 189]+0.011*[# 206]+0.011*[# 193]+0.011*[#  25]+0.011*[# 176]+
          +0.011*[# 202]+0.010*[# 167]+0.011*[# 180]+0.010*[#  35]+0.010*[#  64]+
          +0.010*[#  90]+0.010*[#  77]+0.010*[# 103]+0.008*[#  15]+0.008*[# 190]+
          +0.008*[# 203]+0.007*[# 164]+0.007*[# 177]+0.007*[#  75]+0.007*[# 101]+
          +0.007*[#  62]+0.007*[#  88]+0.006*[#  28]+0.005*[#  22]+0.004*[#  63]+
          +0.004*[#  76]+0.004*[#  89]+0.004*[# 102]+0.004*[# 139]+0.004*[# 230]+
          +0.002*[# 264]+0.002*[# 123]+0.002*[# 126]+0.002*[# 155]+0.002*[# 235]+
          +0.002*[# 240]+0.002*[# 270]+0.001*[#  12]+0.002*[# 222]+
    |psi|^2 = 0.997
     e =     1.73192 eV
     psi = 0.084*[# 182]+0.082*[# 208]+0.081*[# 169]+0.081*[# 195]+0.070*[#  78]+
          +0.070*[#  65]+0.070*[# 104]+0.070*[#  91]+0.035*[#   9]+0.034*[# 217]+
          +0.029*[# 230]+0.026*[#  22]+0.023*[#  35]+0.023*[# 243]+0.022*[#  48]+
          +0.016*[# 110]+0.015*[# 256]+0.014*[# 149]+0.012*[# 123]+0.012*[# 136]+
          +0.008*[# 253]+0.008*[# 268]+0.007*[# 236]+0.006*[#   2]+0.006*[#  15]+
          +0.006*[#  28]+0.005*[# 249]+0.005*[# 223]+0.004*[#  41]+0.004*[# 260]+
          +0.004*[# 263]+0.003*[# 210]+0.003*[#  13]+0.003*[#  26]+0.003*[#  39]+
          +0.003*[#  52]+0.003*[# 221]+0.003*[# 234]+0.003*[# 247]+0.003*[# 262]+
          +0.003*[#   6]+0.002*[# 214]+0.002*[# 233]+0.002*[# 240]+0.002*[#  19]+
          +0.002*[#  32]+0.002*[# 246]+0.002*[#  45]+0.001*[# 178]+0.001*[# 227]+
          +0.001*[# 152]+
    |psi|^2 = 0.999
     e =     1.74744 eV
     psi = 0.111*[# 260]+0.103*[#  52]+0.102*[#  39]+0.102*[#  26]+0.100*[#  13]+
          +0.097*[# 247]+0.096*[# 221]+0.096*[# 234]+0.012*[# 204]+0.012*[# 165]+
          +0.012*[# 191]+0.011*[#  74]+0.011*[#  61]+0.011*[# 100]+0.010*[#  87]+
          +0.010*[# 178]+0.005*[# 184]+0.004*[#  58]+0.004*[#  67]+0.004*[#  84]+
          +0.004*[#  97]+0.004*[# 171]+0.004*[#  54]+0.004*[#  71]+0.004*[#  80]+
          +0.004*[#  93]+0.004*[# 158]+0.004*[# 197]+0.004*[# 175]+0.004*[# 162]+
          +0.004*[# 188]+0.004*[# 201]+0.003*[# 169]+0.003*[# 208]+0.002*[# 182]+
          +0.002*[#  65]+0.002*[#  78]+0.002*[#  91]+0.002*[# 104]+0.002*[# 195]+
          +0.001*[# 263]+0.001*[#   9]+0.001*[# 217]+0.001*[# 230]+
    |psi|^2 = 0.999
     e =     1.99810 eV
     psi = 0.055*[#  24]+0.052*[#  11]+0.052*[#  50]+0.050*[#  37]+0.039*[#  75]+
          +0.039*[#  88]+0.039*[#  62]+0.039*[# 101]+0.038*[#  36]+0.036*[#  10]+
          +0.036*[#  49]+0.034*[#  23]+0.032*[# 258]+0.027*[# 245]+0.027*[#  89]+
          +0.027*[#  63]+0.027*[#  76]+0.027*[# 102]+0.027*[# 219]+0.024*[# 232]+
          +0.024*[# 257]+0.023*[# 205]+0.022*[# 166]+0.022*[# 179]+0.022*[# 192]+
          +0.019*[# 231]+0.018*[# 218]+0.016*[# 244]+0.016*[# 167]+0.015*[# 180]+
          +0.015*[# 193]+0.015*[# 206]+0.002*[# 125]+0.001*[#   8]+0.001*[#  21]+
          +0.002*[#  34]+0.002*[#  47]+0.002*[# 112]+0.001*[#  59]+0.001*[#  72]+
          +0.001*[#  85]+0.001*[#  98]+0.001*[# 138]+0.001*[# 151]+0.001*[# 242]+
          +0.001*[#   7]+0.001*[#  20]+0.001*[#  33]+0.001*[#  46]+
    |psi|^2 = 0.999
     e =     2.00070 eV
     psi = 0.059*[#  36]+0.056*[#  10]+0.055*[#  49]+0.053*[#  23]+0.041*[#  63]+
          +0.041*[#  76]+0.041*[#  89]+0.041*[# 102]+0.041*[#  24]+0.039*[#  11]+
          +0.038*[#  50]+0.037*[#  37]+0.028*[#  75]+0.029*[# 101]+0.028*[#  62]+
          +0.028*[#  88]+0.027*[# 257]+0.024*[# 218]+0.023*[# 231]+0.021*[# 244]+
          +0.020*[# 193]+0.020*[# 206]+0.020*[# 180]+0.019*[# 167]+0.018*[# 258]+
          +0.017*[# 219]+0.016*[# 245]+0.015*[# 232]+0.014*[# 192]+0.014*[# 179]+
          +0.014*[# 166]+0.014*[# 205]+0.002*[#  46]+0.002*[#   7]+0.002*[#  20]+
          +0.002*[#  33]+0.002*[#  86]+0.002*[#  99]+0.002*[# 111]+0.002*[# 137]+
          +0.001*[#  60]+0.001*[#  73]+0.001*[# 124]+0.001*[# 150]+0.001*[# 228]+
          +0.001*[#   8]+0.001*[#  21]+0.001*[#  34]+0.001*[#  47]+0.001*[# 112]+
          +0.001*[# 125]+0.001*[#  59]+
    |psi|^2 = 0.999
     e =     2.07559 eV
     psi = 0.057*[# 258]+0.046*[# 219]+0.046*[# 245]+0.041*[# 232]+0.040*[# 205]+
          +0.040*[# 257]+0.039*[# 166]+0.039*[# 179]+0.038*[# 192]+0.030*[# 231]+
          +0.030*[# 218]+0.029*[#  37]+0.027*[# 167]+0.027*[# 244]+0.026*[#  50]+
          +0.026*[# 206]+0.026*[#  11]+0.026*[# 193]+0.025*[# 180]+0.023*[#  24]+
          +0.021*[#  62]+0.021*[#  75]+0.021*[#  88]+0.021*[# 101]+0.019*[#  23]+
          +0.017*[#  10]+0.017*[#  49]+0.015*[#  36]+0.014*[#  76]+0.014*[# 102]+
          +0.014*[#  63]+0.014*[# 154]+0.014*[#  89]+0.013*[# 128]+0.010*[# 141]+
          +0.010*[# 153]+0.009*[# 115]+0.008*[# 140]+0.007*[# 127]+0.006*[# 114]+
          +0.002*[# 242]+0.001*[# 255]+0.001*[# 228]+0.001*[# 163]+0.001*[# 176]+
    |psi|^2 = 0.998
     e =     2.08021 eV
     psi = 0.058*[# 257]+0.049*[# 218]+0.046*[# 231]+0.044*[# 244]+0.043*[# 193]+
          +0.043*[# 206]+0.042*[# 180]+0.041*[# 167]+0.036*[# 258]+0.033*[# 219]+
          +0.031*[# 245]+0.029*[# 232]+0.029*[# 192]+0.028*[# 179]+0.028*[# 166]+
          +0.027*[# 205]+0.026*[#  23]+0.023*[#  49]+0.022*[#  10]+0.020*[#  36]+
          +0.019*[# 102]+0.019*[#  89]+0.019*[#  63]+0.019*[#  76]+0.017*[#  37]+
          +0.015*[#  50]+0.015*[# 153]+0.015*[#  11]+0.014*[# 140]+0.013*[#  24]+
          +0.013*[#  62]+0.013*[#  75]+0.013*[#  88]+0.013*[# 101]+0.011*[# 127]+
          +0.010*[# 114]+0.010*[# 154]+0.009*[# 128]+0.007*[# 141]+0.006*[# 115]+
          +0.002*[# 228]+0.002*[# 242]+0.002*[# 254]+0.001*[# 255]+0.002*[# 268]+
          +0.002*[# 270]+0.001*[# 190]+0.001*[# 203]+
    |psi|^2 = 0.998
     e =     2.20229 eV
[...]
          +0.010*[# 231]+0.009*[#  26]+0.008*[# 101]+0.008*[#  20]+0.008*[#  62]+
          +0.007*[#  10]+0.006*[# 259]+0.006*[# 154]+0.005*[# 253]+0.005*[#   7]+
          +0.005*[#  88]+0.005*[# 166]+0.005*[# 267]+0.004*[# 103]+0.004*[#  90]+
          +0.003*[#  64]+0.003*[# 179]+0.003*[# 192]+0.003*[# 258]+0.003*[#  41]+
          +0.003*[#  77]+0.003*[# 265]+0.003*[# 215]+0.003*[# 272]+0.003*[# 191]+
          +0.003*[# 236]+0.003*[#  34]+0.002*[#  38]+0.002*[# 242]+0.002*[# 228]+
          +0.002*[#  23]+0.002*[# 127]+0.002*[# 261]+0.002*[# 165]+0.002*[# 204]+
          +0.002*[# 255]+0.002*[# 271]+0.002*[#  48]+0.002*[# 114]+0.002*[# 139]+
          +0.002*[# 151]+0.002*[# 268]+0.001*[#  28]+0.001*[#  97]+0.001*[#  35]+
          +0.001*[#  84]+0.001*[# 205]+0.001*[#  47]+0.001*[# 243]+0.001*[# 249]+
          +0.001*[#  58]+0.001*[#  71]+0.001*[# 168]+
    |psi|^2 = 0.995
     e =     8.21464 eV
     psi = 0.050*[# 115]+0.045*[# 153]+0.044*[# 128]+0.043*[# 140]+0.037*[# 179]+
          +0.037*[# 166]+0.034*[# 247]+0.032*[#  75]+0.031*[#  62]+0.028*[# 205]+
          +0.027*[# 192]+0.027*[#  52]+0.023*[#  39]+0.023*[# 260]+0.023*[#  88]+
          +0.023*[# 101]+0.016*[#  21]+0.016*[# 216]+0.016*[# 229]+0.015*[#   8]+
          +0.012*[# 206]+0.012*[# 193]+0.011*[#  78]+0.011*[# 220]+0.010*[#  65]+
          +0.010*[# 233]+0.010*[#  89]+0.010*[# 254]+0.010*[#   2]+0.009*[#  33]+
          +0.009*[# 102]+0.009*[# 223]+0.009*[#  25]+0.009*[# 210]+0.009*[# 241]+
          +0.008*[#  12]+0.008*[# 167]+0.008*[# 180]+0.008*[# 182]+0.008*[#  15]+
          +0.008*[#  46]+0.008*[#  91]+0.007*[# 169]+0.007*[# 232]+0.007*[# 104]+
          +0.007*[#  76]+0.007*[# 214]+0.007*[# 219]+0.006*[# 227]+0.006*[#  63]+
          +0.005*[#   6]+0.005*[# 195]+0.005*[# 208]+0.005*[# 123]+0.004*[#  24]+
          +0.004*[# 217]+0.004*[# 207]+0.004*[# 194]+0.003*[# 266]+0.003*[#  90]+
          +0.003*[# 103]+0.003*[# 110]+0.003*[# 181]+0.003*[# 168]+0.003*[#  11]+
          +0.003*[#  86]+0.003*[#  99]+0.002*[# 188]+0.002*[# 190]+0.002*[# 203]+
          +0.002*[# 230]+0.002*[#  97]+0.002*[# 100]+0.002*[# 201]+0.002*[#  64]+
          +0.002*[#  77]+0.002*[#  84]+0.002*[#  87]+0.002*[#  60]+0.002*[#  19]+
          +0.002*[#  73]+0.002*[# 175]+0.002*[# 141]+0.002*[# 162]+0.002*[# 164]+
          +0.002*[# 177]+0.002*[#  58]+0.002*[#  59]+0.002*[#  71]+0.002*[#  72]+
          +0.002*[# 163]+0.001*[# 176]+0.002*[# 272]+0.001*[# 191]+0.001*[# 204]+
          +0.001*[#  49]+0.001*[#  61]+0.001*[# 261]+0.001*[#  98]+0.001*[#  32]+
          +0.001*[#  74]+0.001*[#  85]+0.001*[# 189]+0.001*[# 202]+0.001*[# 262]+
          +0.001*[# 269]+
    |psi|^2 = 0.998
     e =     8.27022 eV
     psi = 0.062*[# 141]+0.055*[# 127]+0.048*[# 114]+0.034*[#  88]+0.033*[# 101]+
          +0.033*[#  26]+0.032*[# 154]+0.031*[# 205]+0.029*[# 192]+0.026*[# 221]+
          +0.024*[# 234]+0.023*[#  62]+0.023*[#  75]+0.021*[#  13]+0.019*[#  47]+
          +0.019*[# 179]+0.019*[# 166]+0.016*[# 255]+0.016*[# 242]+0.016*[#  34]+
          +0.014*[# 195]+0.013*[#  76]+0.012*[#  28]+0.012*[#  91]+0.012*[# 208]+
          +0.011*[#   7]+0.011*[# 169]+0.011*[#  63]+0.011*[#  32]+0.010*[#  65]+
          +0.010*[# 102]+0.010*[# 167]+0.010*[# 104]+0.010*[# 182]+0.009*[# 228]+
          +0.009*[# 180]+0.009*[#  78]+0.009*[#  89]+0.007*[#  51]+0.007*[# 193]+
          +0.007*[# 236]+0.007*[# 259]+0.007*[#  41]+0.007*[# 249]+0.007*[# 206]+
          +0.007*[# 215]+0.006*[#  20]+0.006*[#  50]+0.006*[# 149]+0.006*[#  38]+
          +0.005*[# 246]+0.005*[# 256]+0.004*[# 240]+0.003*[# 272]+0.003*[# 164]+
          +0.003*[# 177]+0.003*[#  58]+0.003*[#  77]+0.003*[#  60]+0.003*[#  87]+
          +0.003*[# 136]+0.003*[# 168]+0.003*[# 181]+0.003*[# 267]+0.003*[#  64]+
          +0.003*[#  73]+0.002*[#  71]+0.002*[# 175]+0.002*[# 191]+0.002*[# 103]+
          +0.002*[# 231]+0.002*[# 100]+0.002*[#  84]+0.002*[# 162]+0.002*[#  90]+
          +0.002*[# 190]+0.002*[# 203]+0.002*[# 204]+0.002*[#  61]+0.002*[# 202]+
          +0.002*[# 245]+0.002*[#  23]+0.002*[#  86]+0.002*[#  97]+0.002*[# 128]+
          +0.002*[# 189]+0.002*[# 227]+0.002*[#  98]+0.002*[#  99]+0.002*[# 165]+
          +0.002*[# 201]+0.002*[# 258]+0.002*[#  37]+0.002*[#  85]+0.001*[# 178]+
          +0.001*[# 188]+0.001*[# 243]+0.001*[# 268]+0.001*[#  72]+0.001*[#  74]+
          +0.001*[# 176]+0.001*[#  19]+0.001*[#  59]+0.001*[# 163]+0.001*[# 194]+
          +0.001*[# 207]+
    |psi|^2 = 0.997
     e =     8.49666 eV
     psi = 0.086*[# 227]+0.067*[# 214]+0.057*[#   6]+0.053*[#  19]+0.042*[# 272]+
          +0.034*[# 208]+0.031*[# 195]+0.031*[# 104]+0.030*[#  91]+0.025*[#  74]+
          +0.025*[# 115]+0.025*[#  61]+0.024*[# 178]+0.024*[# 165]+0.021*[# 128]+
          +0.014*[#  36]+0.014*[# 219]+0.013*[#  49]+0.012*[# 230]+0.012*[# 269]+
          +0.012*[#  24]+0.011*[# 257]+0.011*[# 232]+0.011*[# 244]+0.011*[#  11]+
          +0.011*[# 240]+0.010*[# 217]+0.008*[# 267]+0.008*[# 153]+0.008*[# 253]+
          +0.008*[#  32]+0.008*[# 123]+0.007*[#  65]+0.007*[# 169]+0.007*[#  78]+
          +0.006*[# 110]+0.006*[# 182]+0.006*[# 191]+0.006*[# 204]+0.006*[#  87]+
          +0.006*[# 100]+0.006*[# 141]+0.006*[#  45]+0.005*[#  33]+0.005*[# 231]+
          +0.005*[# 263]+0.004*[#  63]+0.004*[# 140]+0.004*[#   2]+0.004*[#  46]+
          +0.004*[#  52]+0.004*[#  76]+0.003*[#  15]+0.003*[# 266]+0.003*[# 265]+
          +0.002*[#  54]+0.002*[#  39]+0.002*[#  67]+0.002*[#  71]+0.002*[# 271]+
          +0.002*[#  58]+0.002*[# 126]+0.002*[#  10]+0.002*[# 245]+0.002*[#  21]+
          +0.002*[#  23]+0.002*[#  50]+0.002*[#  85]+0.002*[# 154]+0.002*[# 254]+
          +0.002*[#  98]+0.002*[# 113]+0.002*[# 127]+0.002*[# 158]+0.001*[# 171]+
          +0.001*[#  64]+0.001*[#  26]+0.001*[#  77]+0.001*[# 149]+0.001*[# 156]+
          +0.001*[# 258]+0.001*[#   7]+
    |psi|^2 = 0.961
     e =     8.62808 eV
     psi = 0.066*[# 240]+0.053*[#  45]+0.047*[# 265]+0.043*[# 253]+0.040*[#  32]+
          +0.034*[# 182]+0.032*[# 169]+0.030*[# 154]+0.028*[# 218]+0.027*[#  78]+
          +0.027*[#  65]+0.025*[# 261]+0.024*[# 100]+0.024*[#  87]+0.022*[# 204]+
          +0.021*[# 191]+0.021*[# 266]+0.020*[# 267]+0.017*[# 272]+0.017*[#  19]+
          +0.015*[# 271]+0.012*[#  23]+0.011*[#  37]+0.010*[# 141]+0.010*[# 258]+
          +0.010*[# 114]+0.010*[#  10]+0.010*[#   6]+0.010*[# 214]+0.009*[# 128]+
          +0.009*[# 136]+0.008*[# 244]+0.008*[# 245]+0.007*[# 231]+0.007*[# 264]+
          +0.006*[#  20]+0.006*[# 262]+0.005*[#  41]+0.005*[# 243]+0.005*[#  13]+
          +0.005*[#  50]+0.005*[#  62]+0.005*[#  75]+0.005*[# 140]+0.005*[# 149]+
          +0.005*[# 208]+0.004*[#  89]+0.004*[# 232]+0.004*[#  11]+0.004*[# 102]+
          +0.004*[# 228]+0.003*[#  34]+0.003*[#  49]+0.003*[# 184]+0.003*[# 104]+
          +0.003*[# 197]+0.003*[#  80]+0.003*[# 110]+0.003*[# 215]+0.003*[#  74]+
          +0.003*[#  91]+0.003*[#  93]+0.003*[# 163]+0.003*[# 176]+0.003*[# 195]+
          +0.002*[# 178]+0.002*[# 227]+0.002*[#  39]+0.002*[#  61]+0.002*[#  46]+
          +0.002*[# 270]+0.002*[#  36]+0.002*[# 165]+0.002*[# 221]+0.002*[#  15]+
          +0.002*[# 217]+0.002*[#   8]+0.002*[#  59]+0.002*[#  97]+0.002*[# 117]+
          +0.002*[# 242]+0.002*[#   7]+0.002*[#  72]+0.001*[#  84]+0.002*[# 194]+
          +0.002*[# 207]+0.001*[#  90]+0.001*[# 115]+0.001*[#  24]+0.001*[# 193]+
          +0.001*[#  48]+0.001*[# 206]+0.001*[# 249]+
    |psi|^2 = 0.961
     e =     9.20514 eV
     psi = 0.059*[# 272]+0.052*[#  45]+0.045*[# 227]+0.037*[#  19]+0.024*[# 156]+
          +0.021*[# 101]+0.021*[#  32]+0.020*[#  88]+0.017*[# 205]+0.015*[# 192]+
          +0.013*[# 130]+0.013*[# 210]+0.013*[# 175]+0.012*[#  63]+0.012*[# 244]+
          +0.011*[# 167]+0.011*[# 269]+0.011*[#  76]+0.011*[# 162]+0.011*[#   8]+
          +0.010*[# 265]+0.010*[# 236]+0.010*[# 240]+0.010*[# 180]+0.010*[# 195]+
          +0.010*[#  52]+0.010*[# 143]+0.010*[# 214]+0.009*[# 208]+0.009*[# 232]+
          +0.008*[#  71]+0.008*[# 229]+0.008*[#  49]+0.008*[# 260]+0.008*[# 256]+
          +0.007*[#  11]+0.007*[#  21]+0.007*[#  58]+0.007*[#  23]+0.007*[#  39]+
          +0.007*[#  61]+0.007*[#  74]+0.006*[# 219]+0.006*[# 267]+0.006*[#  37]+
          +0.006*[# 234]+0.006*[# 216]+0.005*[# 104]+0.005*[# 257]+0.005*[# 152]+
          +0.005*[#   2]+0.005*[#  91]+0.005*[# 137]+0.005*[# 255]+0.004*[#  46]+
          +0.005*[# 241]+0.004*[#  15]+0.004*[# 106]+0.004*[# 271]+0.004*[#  34]+
          +0.004*[# 268]+0.004*[# 125]+0.003*[#  26]+0.004*[# 112]+0.004*[# 139]+
          +0.004*[# 218]+0.003*[# 178]+0.003*[# 230]+0.003*[# 165]+0.003*[# 266]+
          +0.003*[#  20]+0.003*[# 111]+0.003*[# 126]+0.003*[# 136]+0.003*[# 154]+
          +0.003*[# 171]+0.003*[# 215]+0.003*[# 258]+0.003*[#  62]+0.002*[#  35]+
          +0.002*[# 114]+0.002*[# 132]+0.002*[# 158]+0.002*[# 166]+0.002*[# 247]+
          +0.002*[# 128]+0.002*[# 261]+0.002*[#  75]+0.002*[# 140]+0.002*[# 164]+
          +0.002*[# 202]+0.002*[# 243]+0.002*[#  48]+0.002*[# 177]+0.002*[# 189]+
          +0.002*[# 188]+0.002*[# 110]+0.002*[# 206]+0.002*[# 253]+0.001*[# 102]+
          +0.001*[# 149]+0.002*[# 150]+0.001*[# 231]+0.001*[#  28]+0.001*[# 179]+
          +0.001*[#  33]+0.001*[# 151]+0.001*[# 182]+0.001*[# 264]+0.001*[#   9]+
          +0.001*[#  13]+0.001*[#  41]+0.001*[# 249]+0.001*[#  47]+0.001*[#  89]+
    |psi|^2 = 0.855
     e =     9.34094 eV
     psi = 0.074*[#   6]+0.049*[# 214]+0.040*[# 143]+0.024*[#  75]+0.023*[#  62]+
          +0.022*[# 223]+0.022*[# 179]+0.021*[# 272]+0.020*[# 166]+0.018*[# 247]+
          +0.017*[#  21]+0.015*[#  39]+0.015*[#  45]+0.014*[#  36]+0.013*[# 156]+
          +0.013*[# 216]+0.012*[#  24]+0.012*[#  89]+0.012*[#   8]+0.012*[# 193]+
          +0.011*[# 102]+0.011*[# 229]+0.010*[# 206]+0.010*[# 254]+0.009*[#  15]+
          +0.009*[# 244]+0.009*[#  97]+0.009*[# 150]+0.009*[# 201]+0.008*[#  52]+
          +0.008*[# 219]+0.008*[#  84]+0.008*[# 119]+0.008*[# 266]+0.007*[# 162]+
          +0.007*[# 257]+0.007*[# 192]+0.007*[# 232]+0.007*[#  33]+0.007*[# 112]+
          +0.007*[# 188]+0.007*[#  88]+0.006*[# 130]+0.006*[# 253]+0.006*[# 125]+
          +0.006*[#   2]+0.006*[# 265]+0.006*[# 180]+0.005*[# 101]+0.005*[# 205]+
          +0.005*[# 113]+0.005*[# 175]+0.005*[# 267]+0.005*[# 169]+0.004*[# 260]+
          +0.004*[#  58]+0.004*[# 182]+0.004*[#  76]+0.004*[# 167]+0.004*[# 126]+
          +0.004*[# 230]+0.003*[# 217]+0.003*[# 227]+0.003*[# 263]+0.003*[# 236]+
          +0.003*[#  71]+0.003*[# 271]+0.003*[#  63]+0.003*[#  22]+0.003*[#  61]+
          +0.003*[#  74]+0.003*[#  91]+0.003*[# 234]+0.002*[#  78]+0.002*[#  23]+
          +0.002*[#  26]+0.002*[#  34]+0.002*[#  37]+0.002*[#  46]+0.002*[#  65]+
          +0.002*[# 104]+0.002*[#  11]+0.002*[#  49]+0.001*[#  28]+0.002*[# 231]+
          +0.001*[#  19]+0.001*[#  32]+0.001*[#  47]+0.001*[# 129]+0.001*[# 132]+
          +0.001*[# 137]+0.001*[# 158]+0.001*[# 190]+0.001*[# 218]+0.001*[# 241]+
          +0.001*[# 255]+0.001*[# 111]+0.001*[# 189]+0.001*[# 203]+0.001*[# 245]+
          +0.001*[# 262]+0.001*[# 269]+0.001*[# 106]+0.001*[# 115]+0.001*[# 117]+
          +0.001*[# 171]+0.001*[# 123]+0.001*[# 202]+0.001*[# 208]+0.001*[#   9]+
          +0.001*[#  20]+0.001*[# 139]+0.001*[# 152]+
    |psi|^2 = 0.846

Lowdin Charges: 

     Atom #   1: total charge =  15.7982, s =  2.3791, p =  6.8597, d =  6.5594, 
                 spin up      =   9.4572, s =  1.1966, p =  3.4315, d =  4.8291, 
                 spin down    =   6.3409, s =  1.1825, p =  3.4282, d =  1.7303, 
                 polarization =   3.1163, s =  0.0141, p =  0.0033, d =  3.0988, 
     Atom #   2: total charge =  15.7983, s =  2.3794, p =  6.8607, d =  6.5583, 
                 spin up      =   9.4580, s =  1.1970, p =  3.4328, d =  4.8283, 
                 spin down    =   6.3403, s =  1.1824, p =  3.4279, d =  1.7300, 
                 polarization =   3.1177, s =  0.0146, p =  0.0048, d =  3.0982, 
     Atom #   3: total charge =  15.7986, s =  2.3796, p =  6.8610, d =  6.5579, 
                 spin up      =   9.4588, s =  1.1973, p =  3.4332, d =  4.8284, 
                 spin down    =   6.3397, s =  1.1823, p =  3.4278, d =  1.7296, 
                 polarization =   3.1191, s =  0.0149, p =  0.0054, d =  3.0988, 
     Atom #   4: total charge =  15.7997, s =  2.3798, p =  6.8618, d =  6.5582, 
                 spin up      =   9.4592, s =  1.1975, p =  3.4344, d =  4.8273, 
                 spin down    =   6.3405, s =  1.1823, p =  3.4273, d =  1.7309, 
                 polarization =   3.1187, s =  0.0153, p =  0.0071, d =  3.0964, 
     Atom #   5: total charge =  16.1383, s =  2.3082, p =  7.1604, d =  6.6697, 
                 spin up      =   9.2062, s =  1.1409, p =  3.5191, d =  4.5462, 
                 spin down    =   6.9322, s =  1.1673, p =  3.6413, d =  2.1235, 
                 polarization =   2.2740, s = -0.0264, p = -0.1223, d =  2.4227, 
     Atom #   6: total charge =  16.1382, s =  2.3083, p =  7.1604, d =  6.6695, 
                 spin up      =   9.2074, s =  1.1410, p =  3.5190, d =  4.5474, 
                 spin down    =   6.9309, s =  1.1673, p =  3.6414, d =  2.1222, 
                 polarization =   2.2765, s = -0.0263, p = -0.1224, d =  2.4252, 
     Atom #   7: total charge =  16.1384, s =  2.3081, p =  7.1606, d =  6.6698, 
                 spin up      =   9.2042, s =  1.1408, p =  3.5192, d =  4.5442, 
                 spin down    =   6.9343, s =  1.1673, p =  3.6414, d =  2.1256, 
                 polarization =   2.2699, s = -0.0265, p = -0.1222, d =  2.4186, 
     Atom #   8: total charge =  16.1383, s =  2.3082, p =  7.1603, d =  6.6698, 
                 spin up      =   9.2057, s =  1.1409, p =  3.5191, d =  4.5458, 
                 spin down    =   6.9326, s =  1.1673, p =  3.6413, d =  2.1240, 
                 polarization =   2.2731, s = -0.0264, p = -0.1222, d =  2.4217, 
     Atom #   9: total charge =  15.9946, s =  2.2881, p =  7.0801, d =  6.6264, 
                 spin up      =   9.1418, s =  1.1343, p =  3.4816, d =  4.5259, 
                 spin down    =   6.8528, s =  1.1538, p =  3.5985, d =  2.1005, 
                 polarization =   2.2890, s = -0.0195, p = -0.1168, d =  2.4254, 
     Atom #  10: total charge =  15.9989, s =  2.2890, p =  7.0823, d =  6.6276, 
                 spin up      =   9.1246, s =  1.1352, p =  3.4830, d =  4.5064, 
                 spin down    =   6.8742, s =  1.1537, p =  3.5992, d =  2.1213, 
                 polarization =   2.2504, s = -0.0185, p = -0.1162, d =  2.3851, 
     Atom #  11: total charge =  15.9983, s =  2.2889, p =  7.0821, d =  6.6273, 
                 spin up      =   9.1237, s =  1.1352, p =  3.4830, d =  4.5055, 
                 spin down    =   6.8746, s =  1.1537, p =  3.5991, d =  2.1218, 
                 polarization =   2.2491, s = -0.0184, p = -0.1161, d =  2.3837, 
     Atom #  12: total charge =  15.9996, s =  2.2888, p =  7.0767, d =  6.6340, 
                 spin up      =   9.0999, s =  1.1353, p =  3.4817, d =  4.4830, 
                 spin down    =   6.8997, s =  1.1536, p =  3.5951, d =  2.1510, 
                 polarization =   2.2003, s = -0.0183, p = -0.1134, d =  2.3320, 
     Atom #  13: total charge =  16.1286, s =  2.3056, p =  7.1571, d =  6.6658, 
                 spin up      =   9.2066, s =  1.1402, p =  3.5176, d =  4.5489, 
                 spin down    =   6.9219, s =  1.1655, p =  3.6395, d =  2.1169, 
                 polarization =   2.2847, s = -0.0253, p = -0.1219, d =  2.4319, 
     Atom #  14: total charge =  16.1270, s =  2.3069, p =  7.1555, d =  6.6646, 
                 spin up      =   9.2102, s =  1.1408, p =  3.5162, d =  4.5532, 
                 spin down    =   6.9168, s =  1.1661, p =  3.6393, d =  2.1114, 
                 polarization =   2.2935, s = -0.0254, p = -0.1230, d =  2.4419, 
     Atom #  15: total charge =  16.1298, s =  2.3056, p =  7.1558, d =  6.6684, 
                 spin up      =   9.1960, s =  1.1399, p =  3.5171, d =  4.5390, 
                 spin down    =   6.9338, s =  1.1657, p =  3.6387, d =  2.1294, 
                 polarization =   2.2622, s = -0.0258, p = -0.1217, d =  2.4096, 
     Atom #  16: total charge =  16.1276, s =  2.3058, p =  7.1557, d =  6.6661, 
                 spin up      =   9.2040, s =  1.1401, p =  3.5167, d =  4.5472, 
                 spin down    =   6.9237, s =  1.1657, p =  3.6391, d =  2.1189, 
                 polarization =   2.2803, s = -0.0255, p = -0.1224, d =  2.4283, 
     Atom #  17: total charge =  15.9040, s =  2.3850, p =  6.9428, d =  6.5762, 
                 spin up      =   9.4678, s =  1.1987, p =  3.4724, d =  4.7967, 
                 spin down    =   6.4362, s =  1.1862, p =  3.4704, d =  1.7796, 
                 polarization =   3.0316, s =  0.0125, p =  0.0020, d =  3.0171, 
     Atom #  18: total charge =  15.8695, s =  2.3803, p =  6.9081, d =  6.5811, 
                 spin up      =   9.4604, s =  1.1972, p =  3.4522, d =  4.8111, 
                 spin down    =   6.4091, s =  1.1831, p =  3.4559, d =  1.7700, 
                 polarization =   3.0513, s =  0.0140, p = -0.0037, d =  3.0411, 
     Atom #  19: total charge =  15.8826, s =  2.3732, p =  6.9290, d =  6.5805, 
                 spin up      =   9.4609, s =  1.1916, p =  3.4535, d =  4.8157, 
                 spin down    =   6.4218, s =  1.1815, p =  3.4755, d =  1.7648, 
                 polarization =   3.0391, s =  0.0101, p = -0.0219, d =  3.0509, 
     Atom #  20: total charge =  15.8008, s =  2.3499, p =  6.9414, d =  6.5094, 
                 spin up      =   9.4763, s =  1.1725, p =  3.4561, d =  4.8478, 
                 spin down    =   6.3244, s =  1.1775, p =  3.4853, d =  1.6616, 
                 polarization =   3.1519, s = -0.0050, p = -0.0292, d =  3.1861, 
     Atom #  21: total charge =   6.6482, s =  1.6478, p =  5.0004, d =  0.0000, 
                 spin up      =   3.3307, s =  0.8245, p =  2.5061, d =  0.0000, 
                 spin down    =   3.3176, s =  0.8233, p =  2.4943, d =  0.0000, 
                 polarization =   0.0131, s =  0.0012, p =  0.0118, d =  0.0000, 
     Atom #  22: total charge =   0.5773, s =  0.5773, p =  0.0000, d =  0.0000, 
                 spin up      =   0.2883, s =  0.2883, p =  0.0000, d =  0.0000, 
                 spin down    =   0.2889, s =  0.2889, p =  0.0000, d =  0.0000, 
                 polarization =  -0.0006, s = -0.0006, p =  0.0000, d =  0.0000, 
     Atom #  23: total charge =   0.6126, s =  0.6126, p =  0.0000, d =  0.0000, 
                 spin up      =   0.3057, s =  0.3057, p =  0.0000, d =  0.0000, 
                 spin down    =   0.3069, s =  0.3069, p =  0.0000, d =  0.0000, 
                 polarization =  -0.0011, s = -0.0011, p =  0.0000, d =  0.0000, 
     Atom #  24: total charge =   6.5921, s =  1.6280, p =  4.9641, d =  0.0000, 
                 spin up      =   3.3113, s =  0.8174, p =  2.4939, d =  0.0000, 
                 spin down    =   3.2808, s =  0.8106, p =  2.4702, d =  0.0000, 
                 polarization =   0.0305, s =  0.0068, p =  0.0238, d =  0.0000, 
     Atom #  25: total charge =   0.5999, s =  0.5999, p =  0.0000, d =  0.0000, 
                 spin up      =   0.3002, s =  0.3002, p =  0.0000, d =  0.0000, 
                 spin down    =   0.2997, s =  0.2997, p =  0.0000, d =  0.0000, 
                 polarization =   0.0004, s =  0.0004, p =  0.0000, d =  0.0000, 
     Atom #  26: total charge =   0.5883, s =  0.5883, p =  0.0000, d =  0.0000, 
                 spin up      =   0.2948, s =  0.2948, p =  0.0000, d =  0.0000, 
                 spin down    =   0.2936, s =  0.2936, p =  0.0000, d =  0.0000, 
                 polarization =   0.0012, s =  0.0012, p =  0.0000, d =  0.0000, 
     Spilling Parameter:   0.0020
Application 19409847 resources: utime ~13287s, stime ~196s, Rss ~163112, inblocks ~44917735, outblocks ~32460239
