
     Program PROJWFC v.5.0.2 (svn rev. 9656) starts on  7Aug2015 at  4: 2:20 

     This program is part of the open-source Quantum ESPRESSO suite
     for quantum simulation of materials; please cite
         "P. Giannozzi et al., J. Phys.:Condens. Matter 21 395502 (2009);
          URL http://www.quantum-espresso.org", 
     in publications or presentations arising from this work. More details at
     http://www.quantum-espresso.org/quote.php

     Parallel version (MPI & OpenMP), running on      48 processor cores
     Number of MPI processes:                48
     Threads/MPI process:                     1
     K-points division:     npool     =       4
     R & G space division:  proc/nbgrp/npool/nimage =      12

   Info: using nr1, nr2, nr3 values from input

   Info: using nr1s, nr2s, nr3s values from input

     IMPORTANT: XC functional enforced from input :
     Exchange-correlation      = PBE ( 1 4 3 4 0)
     EXX-fraction              =        0.00
     Any further DFT definition will be discarded
     Please, verify this is what you really want

               file Fe.pbe-spn-kjpaw_psl.0.2.1.UPF: wavefunction(s)  3D renormalized
 
     Parallelization info
     --------------------
     sticks:   dense  smooth     PW     G-vecs:    dense   smooth      PW
     Min         608     288     79               124119    40608    5765
     Max         610     289     80               124128    40659    5774
     Sum        7305    3457    949              1489451   487579   69203
 

     Check: negative/imaginary core charge=   -0.000011    0.000000

     negative rho (up, down):  0.520E-04 0.137E-02

     Gaussian broadening (read from input): ngauss,degauss=   0    0.010000


     Calling pprojwave .... 
 
  Problem Sizes 
  natomwfc =          260
  nbnd     =          192
  nkstot   =           12
  npwx     =         5107
  nkb      =          360
 

     Atomic states used for projection
     (read from pseudopotential files):

     state #   1: atom   1 (Fe ), wfc  1 (l=0 m= 1)
     state #   2: atom   1 (Fe ), wfc  2 (l=0 m= 1)
     state #   3: atom   1 (Fe ), wfc  3 (l=1 m= 1)
     state #   4: atom   1 (Fe ), wfc  3 (l=1 m= 2)
     state #   5: atom   1 (Fe ), wfc  3 (l=1 m= 3)
     state #   6: atom   1 (Fe ), wfc  4 (l=1 m= 1)
     state #   7: atom   1 (Fe ), wfc  4 (l=1 m= 2)
     state #   8: atom   1 (Fe ), wfc  4 (l=1 m= 3)
     state #   9: atom   1 (Fe ), wfc  5 (l=2 m= 1)
     state #  10: atom   1 (Fe ), wfc  5 (l=2 m= 2)
     state #  11: atom   1 (Fe ), wfc  5 (l=2 m= 3)
     state #  12: atom   1 (Fe ), wfc  5 (l=2 m= 4)
     state #  13: atom   1 (Fe ), wfc  5 (l=2 m= 5)
     state #  14: atom   2 (Fe ), wfc  1 (l=0 m= 1)
     state #  15: atom   2 (Fe ), wfc  2 (l=0 m= 1)
     state #  16: atom   2 (Fe ), wfc  3 (l=1 m= 1)
     state #  17: atom   2 (Fe ), wfc  3 (l=1 m= 2)
     state #  18: atom   2 (Fe ), wfc  3 (l=1 m= 3)
     state #  19: atom   2 (Fe ), wfc  4 (l=1 m= 1)
     state #  20: atom   2 (Fe ), wfc  4 (l=1 m= 2)
     state #  21: atom   2 (Fe ), wfc  4 (l=1 m= 3)
     state #  22: atom   2 (Fe ), wfc  5 (l=2 m= 1)
     state #  23: atom   2 (Fe ), wfc  5 (l=2 m= 2)
     state #  24: atom   2 (Fe ), wfc  5 (l=2 m= 3)
     state #  25: atom   2 (Fe ), wfc  5 (l=2 m= 4)
     state #  26: atom   2 (Fe ), wfc  5 (l=2 m= 5)
     state #  27: atom   3 (Fe ), wfc  1 (l=0 m= 1)
     state #  28: atom   3 (Fe ), wfc  2 (l=0 m= 1)
     state #  29: atom   3 (Fe ), wfc  3 (l=1 m= 1)
     state #  30: atom   3 (Fe ), wfc  3 (l=1 m= 2)
     state #  31: atom   3 (Fe ), wfc  3 (l=1 m= 3)
     state #  32: atom   3 (Fe ), wfc  4 (l=1 m= 1)
     state #  33: atom   3 (Fe ), wfc  4 (l=1 m= 2)
     state #  34: atom   3 (Fe ), wfc  4 (l=1 m= 3)
     state #  35: atom   3 (Fe ), wfc  5 (l=2 m= 1)
     state #  36: atom   3 (Fe ), wfc  5 (l=2 m= 2)
     state #  37: atom   3 (Fe ), wfc  5 (l=2 m= 3)
     state #  38: atom   3 (Fe ), wfc  5 (l=2 m= 4)
     state #  39: atom   3 (Fe ), wfc  5 (l=2 m= 5)
     state #  40: atom   4 (Fe ), wfc  1 (l=0 m= 1)
     state #  41: atom   4 (Fe ), wfc  2 (l=0 m= 1)
     state #  42: atom   4 (Fe ), wfc  3 (l=1 m= 1)
     state #  43: atom   4 (Fe ), wfc  3 (l=1 m= 2)
     state #  44: atom   4 (Fe ), wfc  3 (l=1 m= 3)
     state #  45: atom   4 (Fe ), wfc  4 (l=1 m= 1)
     state #  46: atom   4 (Fe ), wfc  4 (l=1 m= 2)
     state #  47: atom   4 (Fe ), wfc  4 (l=1 m= 3)
     state #  48: atom   4 (Fe ), wfc  5 (l=2 m= 1)
     state #  49: atom   4 (Fe ), wfc  5 (l=2 m= 2)
     state #  50: atom   4 (Fe ), wfc  5 (l=2 m= 3)
     state #  51: atom   4 (Fe ), wfc  5 (l=2 m= 4)
     state #  52: atom   4 (Fe ), wfc  5 (l=2 m= 5)
     state #  53: atom   5 (Fe ), wfc  1 (l=0 m= 1)
     state #  54: atom   5 (Fe ), wfc  2 (l=0 m= 1)
     state #  55: atom   5 (Fe ), wfc  3 (l=1 m= 1)
     state #  56: atom   5 (Fe ), wfc  3 (l=1 m= 2)
     state #  57: atom   5 (Fe ), wfc  3 (l=1 m= 3)
     state #  58: atom   5 (Fe ), wfc  4 (l=1 m= 1)
     state #  59: atom   5 (Fe ), wfc  4 (l=1 m= 2)
     state #  60: atom   5 (Fe ), wfc  4 (l=1 m= 3)
     state #  61: atom   5 (Fe ), wfc  5 (l=2 m= 1)
     state #  62: atom   5 (Fe ), wfc  5 (l=2 m= 2)
     state #  63: atom   5 (Fe ), wfc  5 (l=2 m= 3)
     state #  64: atom   5 (Fe ), wfc  5 (l=2 m= 4)
     state #  65: atom   5 (Fe ), wfc  5 (l=2 m= 5)
     state #  66: atom   6 (Fe ), wfc  1 (l=0 m= 1)
     state #  67: atom   6 (Fe ), wfc  2 (l=0 m= 1)
     state #  68: atom   6 (Fe ), wfc  3 (l=1 m= 1)
     state #  69: atom   6 (Fe ), wfc  3 (l=1 m= 2)
     state #  70: atom   6 (Fe ), wfc  3 (l=1 m= 3)
     state #  71: atom   6 (Fe ), wfc  4 (l=1 m= 1)
     state #  72: atom   6 (Fe ), wfc  4 (l=1 m= 2)
     state #  73: atom   6 (Fe ), wfc  4 (l=1 m= 3)
     state #  74: atom   6 (Fe ), wfc  5 (l=2 m= 1)
     state #  75: atom   6 (Fe ), wfc  5 (l=2 m= 2)
     state #  76: atom   6 (Fe ), wfc  5 (l=2 m= 3)
     state #  77: atom   6 (Fe ), wfc  5 (l=2 m= 4)
     state #  78: atom   6 (Fe ), wfc  5 (l=2 m= 5)
     state #  79: atom   7 (Fe ), wfc  1 (l=0 m= 1)
     state #  80: atom   7 (Fe ), wfc  2 (l=0 m= 1)
     state #  81: atom   7 (Fe ), wfc  3 (l=1 m= 1)
     state #  82: atom   7 (Fe ), wfc  3 (l=1 m= 2)
     state #  83: atom   7 (Fe ), wfc  3 (l=1 m= 3)
     state #  84: atom   7 (Fe ), wfc  4 (l=1 m= 1)
     state #  85: atom   7 (Fe ), wfc  4 (l=1 m= 2)
     state #  86: atom   7 (Fe ), wfc  4 (l=1 m= 3)
     state #  87: atom   7 (Fe ), wfc  5 (l=2 m= 1)
     state #  88: atom   7 (Fe ), wfc  5 (l=2 m= 2)
     state #  89: atom   7 (Fe ), wfc  5 (l=2 m= 3)
     state #  90: atom   7 (Fe ), wfc  5 (l=2 m= 4)
     state #  91: atom   7 (Fe ), wfc  5 (l=2 m= 5)
     state #  92: atom   8 (Fe ), wfc  1 (l=0 m= 1)
     state #  93: atom   8 (Fe ), wfc  2 (l=0 m= 1)
     state #  94: atom   8 (Fe ), wfc  3 (l=1 m= 1)
     state #  95: atom   8 (Fe ), wfc  3 (l=1 m= 2)
     state #  96: atom   8 (Fe ), wfc  3 (l=1 m= 3)
     state #  97: atom   8 (Fe ), wfc  4 (l=1 m= 1)
     state #  98: atom   8 (Fe ), wfc  4 (l=1 m= 2)
     state #  99: atom   8 (Fe ), wfc  4 (l=1 m= 3)
     state # 100: atom   8 (Fe ), wfc  5 (l=2 m= 1)
     state # 101: atom   8 (Fe ), wfc  5 (l=2 m= 2)
     state # 102: atom   8 (Fe ), wfc  5 (l=2 m= 3)
     state # 103: atom   8 (Fe ), wfc  5 (l=2 m= 4)
     state # 104: atom   8 (Fe ), wfc  5 (l=2 m= 5)
     state # 105: atom   9 (Fe ), wfc  1 (l=0 m= 1)
     state # 106: atom   9 (Fe ), wfc  2 (l=0 m= 1)
     state # 107: atom   9 (Fe ), wfc  3 (l=1 m= 1)
     state # 108: atom   9 (Fe ), wfc  3 (l=1 m= 2)
     state # 109: atom   9 (Fe ), wfc  3 (l=1 m= 3)
     state # 110: atom   9 (Fe ), wfc  4 (l=1 m= 1)
     state # 111: atom   9 (Fe ), wfc  4 (l=1 m= 2)
     state # 112: atom   9 (Fe ), wfc  4 (l=1 m= 3)
     state # 113: atom   9 (Fe ), wfc  5 (l=2 m= 1)
     state # 114: atom   9 (Fe ), wfc  5 (l=2 m= 2)
     state # 115: atom   9 (Fe ), wfc  5 (l=2 m= 3)
     state # 116: atom   9 (Fe ), wfc  5 (l=2 m= 4)
     state # 117: atom   9 (Fe ), wfc  5 (l=2 m= 5)
     state # 118: atom  10 (Fe ), wfc  1 (l=0 m= 1)
     state # 119: atom  10 (Fe ), wfc  2 (l=0 m= 1)
     state # 120: atom  10 (Fe ), wfc  3 (l=1 m= 1)
     state # 121: atom  10 (Fe ), wfc  3 (l=1 m= 2)
     state # 122: atom  10 (Fe ), wfc  3 (l=1 m= 3)
     state # 123: atom  10 (Fe ), wfc  4 (l=1 m= 1)
     state # 124: atom  10 (Fe ), wfc  4 (l=1 m= 2)
     state # 125: atom  10 (Fe ), wfc  4 (l=1 m= 3)
     state # 126: atom  10 (Fe ), wfc  5 (l=2 m= 1)
     state # 127: atom  10 (Fe ), wfc  5 (l=2 m= 2)
     state # 128: atom  10 (Fe ), wfc  5 (l=2 m= 3)
     state # 129: atom  10 (Fe ), wfc  5 (l=2 m= 4)
     state # 130: atom  10 (Fe ), wfc  5 (l=2 m= 5)
     state # 131: atom  11 (Fe ), wfc  1 (l=0 m= 1)
     state # 132: atom  11 (Fe ), wfc  2 (l=0 m= 1)
     state # 133: atom  11 (Fe ), wfc  3 (l=1 m= 1)
     state # 134: atom  11 (Fe ), wfc  3 (l=1 m= 2)
     state # 135: atom  11 (Fe ), wfc  3 (l=1 m= 3)
     state # 136: atom  11 (Fe ), wfc  4 (l=1 m= 1)
     state # 137: atom  11 (Fe ), wfc  4 (l=1 m= 2)
     state # 138: atom  11 (Fe ), wfc  4 (l=1 m= 3)
     state # 139: atom  11 (Fe ), wfc  5 (l=2 m= 1)
     state # 140: atom  11 (Fe ), wfc  5 (l=2 m= 2)
     state # 141: atom  11 (Fe ), wfc  5 (l=2 m= 3)
     state # 142: atom  11 (Fe ), wfc  5 (l=2 m= 4)
     state # 143: atom  11 (Fe ), wfc  5 (l=2 m= 5)
     state # 144: atom  12 (Fe ), wfc  1 (l=0 m= 1)
     state # 145: atom  12 (Fe ), wfc  2 (l=0 m= 1)
     state # 146: atom  12 (Fe ), wfc  3 (l=1 m= 1)
     state # 147: atom  12 (Fe ), wfc  3 (l=1 m= 2)
     state # 148: atom  12 (Fe ), wfc  3 (l=1 m= 3)
     state # 149: atom  12 (Fe ), wfc  4 (l=1 m= 1)
     state # 150: atom  12 (Fe ), wfc  4 (l=1 m= 2)
     state # 151: atom  12 (Fe ), wfc  4 (l=1 m= 3)
     state # 152: atom  12 (Fe ), wfc  5 (l=2 m= 1)
     state # 153: atom  12 (Fe ), wfc  5 (l=2 m= 2)
     state # 154: atom  12 (Fe ), wfc  5 (l=2 m= 3)
     state # 155: atom  12 (Fe ), wfc  5 (l=2 m= 4)
     state # 156: atom  12 (Fe ), wfc  5 (l=2 m= 5)
     state # 157: atom  13 (Fe ), wfc  1 (l=0 m= 1)
     state # 158: atom  13 (Fe ), wfc  2 (l=0 m= 1)
     state # 159: atom  13 (Fe ), wfc  3 (l=1 m= 1)
     state # 160: atom  13 (Fe ), wfc  3 (l=1 m= 2)
     state # 161: atom  13 (Fe ), wfc  3 (l=1 m= 3)
     state # 162: atom  13 (Fe ), wfc  4 (l=1 m= 1)
     state # 163: atom  13 (Fe ), wfc  4 (l=1 m= 2)
     state # 164: atom  13 (Fe ), wfc  4 (l=1 m= 3)
     state # 165: atom  13 (Fe ), wfc  5 (l=2 m= 1)
     state # 166: atom  13 (Fe ), wfc  5 (l=2 m= 2)
     state # 167: atom  13 (Fe ), wfc  5 (l=2 m= 3)
     state # 168: atom  13 (Fe ), wfc  5 (l=2 m= 4)
     state # 169: atom  13 (Fe ), wfc  5 (l=2 m= 5)
     state # 170: atom  14 (Fe ), wfc  1 (l=0 m= 1)
     state # 171: atom  14 (Fe ), wfc  2 (l=0 m= 1)
     state # 172: atom  14 (Fe ), wfc  3 (l=1 m= 1)
     state # 173: atom  14 (Fe ), wfc  3 (l=1 m= 2)
     state # 174: atom  14 (Fe ), wfc  3 (l=1 m= 3)
     state # 175: atom  14 (Fe ), wfc  4 (l=1 m= 1)
     state # 176: atom  14 (Fe ), wfc  4 (l=1 m= 2)
     state # 177: atom  14 (Fe ), wfc  4 (l=1 m= 3)
     state # 178: atom  14 (Fe ), wfc  5 (l=2 m= 1)
     state # 179: atom  14 (Fe ), wfc  5 (l=2 m= 2)
     state # 180: atom  14 (Fe ), wfc  5 (l=2 m= 3)
     state # 181: atom  14 (Fe ), wfc  5 (l=2 m= 4)
     state # 182: atom  14 (Fe ), wfc  5 (l=2 m= 5)
     state # 183: atom  15 (Fe ), wfc  1 (l=0 m= 1)
     state # 184: atom  15 (Fe ), wfc  2 (l=0 m= 1)
     state # 185: atom  15 (Fe ), wfc  3 (l=1 m= 1)
     state # 186: atom  15 (Fe ), wfc  3 (l=1 m= 2)
     state # 187: atom  15 (Fe ), wfc  3 (l=1 m= 3)
     state # 188: atom  15 (Fe ), wfc  4 (l=1 m= 1)
     state # 189: atom  15 (Fe ), wfc  4 (l=1 m= 2)
     state # 190: atom  15 (Fe ), wfc  4 (l=1 m= 3)
     state # 191: atom  15 (Fe ), wfc  5 (l=2 m= 1)
     state # 192: atom  15 (Fe ), wfc  5 (l=2 m= 2)
     state # 193: atom  15 (Fe ), wfc  5 (l=2 m= 3)
     state # 194: atom  15 (Fe ), wfc  5 (l=2 m= 4)
     state # 195: atom  15 (Fe ), wfc  5 (l=2 m= 5)
     state # 196: atom  16 (Fe ), wfc  1 (l=0 m= 1)
     state # 197: atom  16 (Fe ), wfc  2 (l=0 m= 1)
     state # 198: atom  16 (Fe ), wfc  3 (l=1 m= 1)
     state # 199: atom  16 (Fe ), wfc  3 (l=1 m= 2)
     state # 200: atom  16 (Fe ), wfc  3 (l=1 m= 3)
     state # 201: atom  16 (Fe ), wfc  4 (l=1 m= 1)
     state # 202: atom  16 (Fe ), wfc  4 (l=1 m= 2)
     state # 203: atom  16 (Fe ), wfc  4 (l=1 m= 3)
     state # 204: atom  16 (Fe ), wfc  5 (l=2 m= 1)
     state # 205: atom  16 (Fe ), wfc  5 (l=2 m= 2)
     state # 206: atom  16 (Fe ), wfc  5 (l=2 m= 3)
     state # 207: atom  16 (Fe ), wfc  5 (l=2 m= 4)
     state # 208: atom  16 (Fe ), wfc  5 (l=2 m= 5)
     state # 209: atom  17 (Fe ), wfc  1 (l=0 m= 1)
     state # 210: atom  17 (Fe ), wfc  2 (l=0 m= 1)
     state # 211: atom  17 (Fe ), wfc  3 (l=1 m= 1)
     state # 212: atom  17 (Fe ), wfc  3 (l=1 m= 2)
     state # 213: atom  17 (Fe ), wfc  3 (l=1 m= 3)
     state # 214: atom  17 (Fe ), wfc  4 (l=1 m= 1)
     state # 215: atom  17 (Fe ), wfc  4 (l=1 m= 2)
     state # 216: atom  17 (Fe ), wfc  4 (l=1 m= 3)
     state # 217: atom  17 (Fe ), wfc  5 (l=2 m= 1)
     state # 218: atom  17 (Fe ), wfc  5 (l=2 m= 2)
     state # 219: atom  17 (Fe ), wfc  5 (l=2 m= 3)
     state # 220: atom  17 (Fe ), wfc  5 (l=2 m= 4)
     state # 221: atom  17 (Fe ), wfc  5 (l=2 m= 5)
     state # 222: atom  18 (Fe ), wfc  1 (l=0 m= 1)
     state # 223: atom  18 (Fe ), wfc  2 (l=0 m= 1)
     state # 224: atom  18 (Fe ), wfc  3 (l=1 m= 1)
     state # 225: atom  18 (Fe ), wfc  3 (l=1 m= 2)
     state # 226: atom  18 (Fe ), wfc  3 (l=1 m= 3)
     state # 227: atom  18 (Fe ), wfc  4 (l=1 m= 1)
     state # 228: atom  18 (Fe ), wfc  4 (l=1 m= 2)
     state # 229: atom  18 (Fe ), wfc  4 (l=1 m= 3)
     state # 230: atom  18 (Fe ), wfc  5 (l=2 m= 1)
     state # 231: atom  18 (Fe ), wfc  5 (l=2 m= 2)
     state # 232: atom  18 (Fe ), wfc  5 (l=2 m= 3)
     state # 233: atom  18 (Fe ), wfc  5 (l=2 m= 4)
     state # 234: atom  18 (Fe ), wfc  5 (l=2 m= 5)
     state # 235: atom  19 (Fe ), wfc  1 (l=0 m= 1)
     state # 236: atom  19 (Fe ), wfc  2 (l=0 m= 1)
     state # 237: atom  19 (Fe ), wfc  3 (l=1 m= 1)
     state # 238: atom  19 (Fe ), wfc  3 (l=1 m= 2)
     state # 239: atom  19 (Fe ), wfc  3 (l=1 m= 3)
     state # 240: atom  19 (Fe ), wfc  4 (l=1 m= 1)
     state # 241: atom  19 (Fe ), wfc  4 (l=1 m= 2)
     state # 242: atom  19 (Fe ), wfc  4 (l=1 m= 3)
     state # 243: atom  19 (Fe ), wfc  5 (l=2 m= 1)
     state # 244: atom  19 (Fe ), wfc  5 (l=2 m= 2)
     state # 245: atom  19 (Fe ), wfc  5 (l=2 m= 3)
     state # 246: atom  19 (Fe ), wfc  5 (l=2 m= 4)
     state # 247: atom  19 (Fe ), wfc  5 (l=2 m= 5)
     state # 248: atom  20 (Fe ), wfc  1 (l=0 m= 1)
     state # 249: atom  20 (Fe ), wfc  2 (l=0 m= 1)
     state # 250: atom  20 (Fe ), wfc  3 (l=1 m= 1)
     state # 251: atom  20 (Fe ), wfc  3 (l=1 m= 2)
     state # 252: atom  20 (Fe ), wfc  3 (l=1 m= 3)
     state # 253: atom  20 (Fe ), wfc  4 (l=1 m= 1)
     state # 254: atom  20 (Fe ), wfc  4 (l=1 m= 2)
     state # 255: atom  20 (Fe ), wfc  4 (l=1 m= 3)
     state # 256: atom  20 (Fe ), wfc  5 (l=2 m= 1)
     state # 257: atom  20 (Fe ), wfc  5 (l=2 m= 2)
     state # 258: atom  20 (Fe ), wfc  5 (l=2 m= 3)
     state # 259: atom  20 (Fe ), wfc  5 (l=2 m= 4)
     state # 260: atom  20 (Fe ), wfc  5 (l=2 m= 5)

 k =   0.0000000000  0.0000000000  0.0000000000
     e =   -83.67971 eV
     psi = 0.227*[#  14]+0.227*[#  27]+0.227*[#  40]+0.225*[#   1]+0.013*[#  58]+
          +0.013*[#  71]+0.013*[#  84]+0.013*[#  97]+0.004*[#  54]+0.004*[#  67]+
          +0.004*[#  80]+0.004*[#  93]+0.004*[# 110]+0.004*[# 123]+0.004*[# 136]+
          +0.004*[# 149]+
    |psi|^2 = 1.000
     e =   -83.67309 eV
     psi = 0.476*[#  14]+0.476*[#  27]+0.005*[#  59]+0.005*[#  60]+0.005*[#  72]+
          +0.005*[#  73]+0.005*[#  85]+0.005*[#  86]+0.005*[#  98]+0.005*[#  99]+
          +0.003*[#  15]+0.003*[#  28]+
    |psi|^2 = 1.000
     e =   -83.67306 eV
     psi = 0.476*[#  40]+0.475*[#   1]+0.005*[#  59]+0.005*[#  60]+0.005*[#  72]+
          +0.005*[#  73]+0.005*[#  85]+0.005*[#  86]+0.005*[#  98]+0.005*[#  99]+
          +0.003*[#   2]+0.003*[#  41]+
    |psi|^2 = 1.000
     e =   -83.66801 eV
     psi = 0.247*[#   1]+0.245*[#  40]+0.245*[#  14]+0.245*[#  27]+0.004*[#   2]+
          +0.004*[#  15]+0.004*[#  28]+0.004*[#  41]+
    |psi|^2 = 1.000
     e =   -83.66275 eV
     psi = 0.228*[# 248]+0.227*[# 209]+0.225*[# 222]+0.225*[# 235]+0.013*[# 162]+
          +0.013*[# 175]+0.013*[# 188]+0.013*[# 201]+0.004*[# 158]+0.004*[# 171]+
          +0.004*[# 184]+0.004*[# 197]+0.004*[# 110]+0.004*[# 123]+0.004*[# 136]+
          +0.004*[# 149]+
    |psi|^2 = 1.000
     e =   -83.65592 eV
     psi = 0.475*[# 248]+0.475*[# 209]+0.005*[# 163]+0.005*[# 164]+0.005*[# 176]+
          +0.005*[# 177]+0.005*[# 189]+0.005*[# 190]+0.005*[# 202]+0.005*[# 203]+
          +0.004*[# 210]+0.004*[# 249]+
    |psi|^2 = 1.000
     e =   -83.65585 eV
     psi = 0.475*[# 222]+0.475*[# 235]+0.005*[# 163]+0.005*[# 164]+0.005*[# 176]+
          +0.005*[# 177]+0.005*[# 189]+0.005*[# 190]+0.005*[# 202]+0.005*[# 203]+
          +0.004*[# 223]+0.004*[# 236]+
    |psi|^2 = 1.000
     e =   -83.65081 eV
     psi = 0.247*[# 222]+0.247*[# 235]+0.245*[# 209]+0.243*[# 248]+0.004*[# 210]+
          +0.004*[# 223]+0.004*[# 236]+0.004*[# 249]+
    |psi|^2 = 1.000
     e =   -83.03528 eV
     psi = 0.174*[# 105]+0.174*[# 118]+0.174*[# 131]+0.173*[# 144]+0.023*[#  53]+
          +0.023*[#  66]+0.023*[#  79]+0.023*[#  92]+0.018*[# 157]+0.018*[# 170]+
          +0.018*[# 183]+0.018*[# 196]+0.010*[# 162]+0.010*[# 175]+0.010*[# 188]+
          +0.010*[# 201]+0.009*[#  58]+0.009*[#  71]+0.009*[#  84]+0.009*[#  97]+
          +0.004*[#   6]+0.004*[#  19]+0.004*[#  32]+0.004*[#  45]+0.004*[# 214]+
          +0.004*[# 227]+0.004*[# 240]+0.004*[# 253]+0.003*[#   2]+0.003*[#  15]+
          +0.003*[#  28]+0.003*[#  41]+0.003*[# 210]+0.003*[# 223]+0.003*[# 236]+
          +0.003*[# 249]+0.002*[# 158]+0.002*[# 171]+0.002*[# 184]+0.002*[# 197]+
          +0.002*[#  54]+0.002*[#  67]+0.002*[#  80]+0.002*[#  93]+
    |psi|^2 = 1.000
     e =   -83.00681 eV
     psi = 0.462*[# 118]+0.462*[# 131]+0.007*[# 119]+0.007*[# 132]+0.004*[#  59]+
          +0.004*[#  60]+0.004*[#  72]+0.004*[#  73]+0.004*[#  85]+0.004*[#  86]+
          +0.004*[#  98]+0.004*[#  99]+0.003*[# 163]+0.003*[# 164]+0.003*[# 176]+
          +0.003*[# 177]+0.003*[# 189]+0.003*[# 190]+0.003*[# 202]+0.003*[# 203]+
    |psi|^2 = 1.000
     e =   -83.00681 eV
     psi = 0.463*[# 105]+0.460*[# 144]+0.007*[# 106]+0.007*[# 145]+0.004*[#  59]+
          +0.004*[#  60]+0.004*[#  72]+0.004*[#  73]+0.004*[#  85]+0.004*[#  86]+
          +0.004*[#  98]+0.004*[#  99]+0.003*[# 163]+0.003*[# 164]+0.003*[# 176]+
          +0.003*[# 177]+0.003*[# 189]+0.003*[# 190]+0.003*[# 202]+0.003*[# 203]+
    |psi|^2 = 1.000
     e =   -83.00154 eV
     psi = 0.246*[# 144]+0.244*[# 118]+0.244*[# 131]+0.243*[# 105]+0.004*[# 106]+
          +0.004*[# 119]+0.004*[# 132]+0.004*[# 145]+
    |psi|^2 = 1.000
     e =   -82.93811 eV
     psi = 0.224*[#  53]+0.224*[#  66]+0.224*[#  79]+0.224*[#  92]+0.006*[# 157]+
          +0.006*[# 170]+0.006*[# 183]+0.006*[# 196]+0.005*[# 111]+0.005*[# 112]+
          +0.005*[# 124]+0.005*[# 125]+0.005*[# 137]+0.005*[# 138]+0.005*[# 150]+
          +0.005*[# 151]+0.003*[#   7]+0.003*[#   8]+0.003*[#  20]+0.003*[#  21]+
          +0.003*[#  33]+0.003*[#  34]+0.003*[#  46]+0.003*[#  47]+0.003*[#  54]+
          +0.003*[#  67]+0.003*[#  80]+0.003*[#  93]+
    |psi|^2 = 1.000
     e =   -82.93811 eV
     psi = 0.224*[#  53]+0.224*[#  66]+0.224*[#  79]+0.224*[#  92]+0.005*[# 157]+
          +0.005*[# 170]+0.005*[# 183]+0.005*[# 196]+0.005*[# 111]+0.005*[# 112]+
          +0.005*[# 124]+0.005*[# 125]+0.005*[# 137]+0.005*[# 138]+0.005*[# 150]+
          +0.005*[# 151]+0.003*[#   7]+0.003*[#   8]+0.003*[#  20]+0.003*[#  21]+
          +0.003*[#  33]+0.003*[#  34]+0.003*[#  46]+0.003*[#  47]+0.003*[#  54]+
          +0.003*[#  67]+0.003*[#  80]+0.003*[#  93]+
    |psi|^2 = 1.000
     e =   -82.93706 eV
     psi = 0.131*[#  53]+0.131*[#  66]+0.131*[#  79]+0.131*[#  92]+0.084*[# 157]+
          +0.084*[# 170]+0.084*[# 183]+0.084*[# 196]+0.019*[# 110]+0.019*[# 123]+
          +0.019*[# 136]+0.019*[# 149]+0.003*[#   6]+0.003*[#  19]+0.003*[#  32]+
          +0.003*[#  45]+0.002*[#  54]+0.002*[#  67]+0.002*[#  80]+0.002*[#  93]+
          +0.002*[# 214]+0.002*[# 227]+0.002*[# 240]+0.002*[# 253]+0.002*[# 105]+
          +0.002*[# 118]+0.002*[# 131]+0.002*[# 144]+0.001*[# 158]+0.001*[# 171]+
          +0.001*[# 184]+0.001*[# 197]+0.001*[#  58]+0.001*[#  71]+0.001*[#  84]+
          +0.001*[#  97]+0.001*[#   2]+0.001*[#  15]+0.001*[#  28]+0.001*[#  41]+
    |psi|^2 = 1.000
     e =   -82.93277 eV
     psi = 0.238*[#  53]+0.238*[#  66]+0.238*[#  79]+0.238*[#  92]+0.007*[# 157]+
          +0.007*[# 170]+0.007*[# 183]+0.007*[# 196]+0.004*[#  54]+0.004*[#  67]+
          +0.004*[#  80]+0.004*[#  93]+
    |psi|^2 = 1.000
     e =   -82.93062 eV
     psi = 0.227*[# 157]+0.227*[# 170]+0.227*[# 183]+0.227*[# 196]+0.008*[#  53]+
          +0.008*[#  66]+0.008*[#  79]+0.008*[#  92]+0.003*[# 215]+0.003*[# 216]+
          +0.003*[# 228]+0.003*[# 229]+0.003*[# 241]+0.003*[# 242]+0.003*[# 254]+
          +0.003*[# 255]+0.003*[# 158]+0.003*[# 171]+0.003*[# 184]+0.003*[# 197]+
          +0.002*[# 111]+0.002*[# 112]+0.002*[# 124]+0.002*[# 125]+0.002*[# 137]+
          +0.002*[# 138]+0.002*[# 150]+0.002*[# 151]+
    |psi|^2 = 1.000
     e =   -82.93062 eV
     psi = 0.227*[# 157]+0.227*[# 170]+0.227*[# 183]+0.227*[# 196]+0.008*[#  53]+
          +0.008*[#  66]+0.008*[#  79]+0.008*[#  92]+0.003*[# 215]+0.003*[# 216]+
          +0.003*[# 228]+0.003*[# 229]+0.003*[# 241]+0.003*[# 242]+0.003*[# 254]+
          +0.003*[# 255]+0.003*[# 158]+0.003*[# 171]+0.003*[# 184]+0.003*[# 197]+
          +0.002*[# 111]+0.002*[# 112]+0.002*[# 124]+0.002*[# 125]+0.002*[# 137]+
          +0.002*[# 138]+0.002*[# 150]+0.002*[# 151]+
    |psi|^2 = 1.000
     e =   -82.92530 eV
     psi = 0.238*[# 157]+0.238*[# 170]+0.238*[# 183]+0.238*[# 196]+0.006*[#  53]+
          +0.006*[#  66]+0.006*[#  79]+0.006*[#  92]+0.004*[# 158]+0.004*[# 171]+
          +0.004*[# 184]+0.004*[# 197]+
    |psi|^2 = 1.000
     e =   -82.91555 eV
     psi = 0.119*[# 157]+0.119*[# 170]+0.119*[# 183]+0.119*[# 196]+0.067*[#  53]+
          +0.067*[#  66]+0.067*[#  79]+0.067*[#  92]+0.045*[# 105]+0.045*[# 118]+
          +0.045*[# 131]+0.045*[# 144]+0.008*[# 106]+0.008*[# 119]+0.008*[# 132]+
          +0.008*[# 145]+0.003*[# 214]+0.003*[# 227]+0.003*[# 240]+0.003*[# 253]+
          +0.002*[# 210]+0.002*[# 223]+0.002*[# 236]+0.002*[# 249]+0.002*[# 158]+
          +0.002*[# 171]+0.002*[# 184]+0.002*[# 197]+0.001*[#   2]+0.001*[#   6]+
          +0.001*[#  15]+0.001*[#  19]+0.001*[#  28]+0.001*[#  32]+0.001*[#  41]+
          +0.001*[#  45]+
    |psi|^2 = 1.000
     e =   -49.85568 eV
     psi = 0.481*[#  16]+0.481*[#  29]+0.005*[# 224]+0.005*[# 237]+0.002*[#  56]+
          +0.002*[#  57]+0.002*[#  69]+0.002*[#  70]+0.002*[#  82]+0.002*[#  83]+
          +0.002*[#  95]+0.002*[#  96]+
    |psi|^2 = 1.000
     e =   -49.85566 eV
     psi = 0.483*[#  42]+0.479*[#   3]+0.005*[# 211]+0.005*[# 250]+0.002*[#  56]+
          +0.002*[#  57]+0.002*[#  69]+0.002*[#  70]+0.002*[#  82]+0.002*[#  83]+
          +0.002*[#  95]+0.002*[#  96]+
    |psi|^2 = 1.000
     e =   -49.85332 eV
     psi = 0.248*[#   3]+0.246*[#  16]+0.246*[#  29]+0.244*[#  42]+0.002*[#  55]+
          +0.002*[#  68]+0.002*[#  81]+0.002*[#  94]+0.001*[#  54]+0.001*[#  67]+
          +0.001*[#  80]+0.001*[#  93]+
    |psi|^2 = 1.000
     e =   -49.84590 eV
     psi = 0.482*[# 250]+0.479*[# 211]+0.005*[#   3]+0.005*[#  42]+0.002*[# 160]+
          +0.002*[# 161]+0.002*[# 173]+0.002*[# 174]+0.002*[# 186]+0.002*[# 187]+
          +0.002*[# 199]+0.002*[# 200]+
    |psi|^2 = 1.000
     e =   -49.84583 eV
     psi = 0.481*[# 224]+0.481*[# 237]+0.005*[#  16]+0.005*[#  29]+0.002*[# 160]+
          +0.002*[# 161]+0.002*[# 173]+0.002*[# 174]+0.002*[# 186]+0.002*[# 187]+
          +0.002*[# 199]+0.002*[# 200]+
    |psi|^2 = 1.000
     e =   -49.84276 eV
     psi = 0.248*[# 211]+0.246*[# 250]+0.245*[# 224]+0.245*[# 237]+0.002*[# 159]+
          +0.002*[# 172]+0.002*[# 185]+0.002*[# 198]+0.001*[# 158]+0.001*[# 171]+
          +0.001*[# 184]+0.001*[# 197]+
    |psi|^2 = 1.000
     e =   -49.83707 eV
     psi = 0.248*[#   3]+0.248*[#  42]+0.247*[#  16]+0.247*[#  29]+0.001*[#   6]+
          +0.001*[#  19]+0.001*[#  32]+0.001*[#  45]+
    |psi|^2 = 1.000
     e =   -49.82625 eV
     psi = 0.249*[# 224]+0.249*[# 237]+0.247*[# 211]+0.246*[# 250]+0.001*[# 214]+
          +0.001*[# 227]+0.001*[# 240]+0.001*[# 253]+
    |psi|^2 = 1.000
     e =   -49.71047 eV
     psi = 0.120*[#  17]+0.120*[#  31]+0.120*[#  43]+0.120*[#  44]+0.120*[#  18]+
          +0.120*[#  30]+0.120*[#   4]+0.120*[#   5]+0.005*[#  55]+0.005*[#  68]+
          +0.005*[#  81]+0.005*[#  94]+0.002*[#  58]+0.002*[#  71]+0.002*[#  84]+
          +0.002*[#  97]+0.001*[#  54]+0.001*[#  67]+0.001*[#  80]+0.001*[#  93]+
    |psi|^2 = 1.000
     e =   -49.71047 eV
     psi = 0.120*[#  17]+0.120*[#  31]+0.120*[#  43]+0.120*[#  44]+0.120*[#  18]+
          +0.120*[#  30]+0.120*[#   4]+0.120*[#   5]+0.005*[#  55]+0.005*[#  68]+
          +0.005*[#  81]+0.005*[#  94]+0.002*[#  58]+0.002*[#  71]+0.002*[#  84]+
          +0.002*[#  97]+0.001*[#  54]+0.001*[#  67]+0.001*[#  80]+0.001*[#  93]+
    |psi|^2 = 1.000
     e =   -49.70693 eV
     psi = 0.121*[#  18]+0.121*[#  30]+0.121*[#   4]+0.121*[#   5]+0.121*[#  17]+
          +0.121*[#  31]+0.120*[#  43]+0.120*[#  44]+0.003*[#  56]+0.003*[#  57]+
          +0.003*[#  69]+0.003*[#  70]+0.003*[#  82]+0.003*[#  83]+0.003*[#  95]+
          +0.003*[#  96]+
    |psi|^2 = 1.000
     e =   -49.70693 eV
     psi = 0.121*[#  18]+0.121*[#  30]+0.121*[#   4]+0.121*[#   5]+0.121*[#  17]+
          +0.121*[#  31]+0.120*[#  43]+0.120*[#  44]+0.003*[#  56]+0.003*[#  57]+
          +0.003*[#  69]+0.003*[#  70]+0.003*[#  82]+0.003*[#  83]+0.003*[#  95]+
          +0.003*[#  96]+
    |psi|^2 = 1.000
     e =   -49.69258 eV
     psi = 0.120*[# 251]+0.120*[# 252]+0.120*[# 225]+0.120*[# 239]+0.119*[# 212]+
          +0.119*[# 213]+0.119*[# 226]+0.119*[# 238]+0.005*[# 159]+0.005*[# 172]+
          +0.005*[# 185]+0.005*[# 198]+0.002*[# 162]+0.002*[# 175]+0.002*[# 188]+
          +0.002*[# 201]+0.001*[# 158]+0.001*[# 171]+0.001*[# 184]+0.001*[# 197]+
    |psi|^2 = 1.000
     e =   -49.69258 eV
     psi = 0.120*[# 251]+0.120*[# 252]+0.120*[# 225]+0.120*[# 239]+0.119*[# 212]+
          +0.119*[# 213]+0.119*[# 226]+0.119*[# 238]+0.005*[# 159]+0.005*[# 172]+
          +0.005*[# 185]+0.005*[# 198]+0.002*[# 162]+0.002*[# 175]+0.002*[# 188]+
          +0.002*[# 201]+0.001*[# 158]+0.001*[# 171]+0.001*[# 184]+0.001*[# 197]+
    |psi|^2 = 1.000
     e =   -49.68980 eV
     psi = 0.121*[# 212]+0.121*[# 213]+0.121*[# 226]+0.121*[# 238]+0.120*[# 251]+
          +0.120*[# 252]+0.120*[# 225]+0.120*[# 239]+0.003*[# 160]+0.003*[# 161]+
          +0.003*[# 173]+0.003*[# 174]+0.003*[# 186]+0.003*[# 187]+0.003*[# 199]+
          +0.003*[# 200]+
    |psi|^2 = 1.000
     e =   -49.68980 eV
     psi = 0.121*[# 212]+0.121*[# 213]+0.121*[# 226]+0.121*[# 238]+0.120*[# 251]+
          +0.120*[# 252]+0.120*[# 225]+0.120*[# 239]+0.003*[# 160]+0.003*[# 161]+
          +0.003*[# 173]+0.003*[# 174]+0.003*[# 186]+0.003*[# 187]+0.003*[# 199]+
          +0.003*[# 200]+
    |psi|^2 = 1.000
     e =   -49.64367 eV
     psi = 0.122*[#  43]+0.122*[#  44]+0.122*[#   4]+0.122*[#   5]+0.122*[#  17]+
          +0.122*[#  31]+0.122*[#  18]+0.122*[#  30]+0.002*[#  56]+0.002*[#  57]+
          +0.002*[#  69]+0.002*[#  70]+0.002*[#  82]+0.002*[#  83]+0.002*[#  95]+
          +0.002*[#  96]+0.001*[#   7]+0.001*[#   8]+0.001*[#  20]+0.001*[#  21]+
          +0.001*[#  33]+0.001*[#  34]+0.001*[#  46]+0.001*[#  47]+
    |psi|^2 = 1.000
     e =   -49.64367 eV
     psi = 0.122*[#  43]+0.122*[#  44]+0.122*[#   4]+0.122*[#   5]+0.122*[#  17]+
          +0.122*[#  31]+0.122*[#  18]+0.122*[#  30]+0.002*[#  56]+0.002*[#  57]+
          +0.002*[#  69]+0.002*[#  70]+0.002*[#  82]+0.002*[#  83]+0.002*[#  95]+
          +0.002*[#  96]+0.001*[#   7]+0.001*[#   8]+0.001*[#  20]+0.001*[#  21]+
          +0.001*[#  33]+0.001*[#  34]+0.001*[#  46]+0.001*[#  47]+
    |psi|^2 = 1.000
     e =   -49.63061 eV
     psi = 0.122*[#   4]+0.122*[#   5]+0.122*[#  18]+0.122*[#  30]+0.122*[#  17]+
          +0.122*[#  31]+0.122*[#  43]+0.122*[#  44]+0.003*[#   7]+0.003*[#   8]+
          +0.003*[#  20]+0.003*[#  21]+0.003*[#  33]+0.003*[#  34]+0.003*[#  46]+
          +0.003*[#  47]+
    |psi|^2 = 1.000
     e =   -49.63061 eV
     psi = 0.122*[#   4]+0.122*[#   5]+0.122*[#  18]+0.122*[#  30]+0.122*[#  17]+
          +0.122*[#  31]+0.122*[#  43]+0.122*[#  44]+0.003*[#   7]+0.003*[#   8]+
          +0.003*[#  20]+0.003*[#  21]+0.003*[#  33]+0.003*[#  34]+0.003*[#  46]+
          +0.003*[#  47]+
    |psi|^2 = 1.000
     e =   -49.62542 eV
     psi = 0.122*[# 225]+0.122*[# 239]+0.122*[# 226]+0.122*[# 238]+0.122*[# 251]+
          +0.122*[# 252]+0.122*[# 212]+0.122*[# 213]+0.002*[# 160]+0.002*[# 161]+
          +0.002*[# 173]+0.002*[# 174]+0.002*[# 186]+0.002*[# 187]+0.002*[# 199]+
          +0.002*[# 200]+0.001*[# 215]+0.001*[# 216]+0.001*[# 228]+0.001*[# 229]+
          +0.001*[# 241]+0.001*[# 242]+0.001*[# 254]+0.001*[# 255]+
    |psi|^2 = 1.000
     e =   -49.62542 eV
     psi = 0.122*[# 225]+0.122*[# 239]+0.122*[# 226]+0.122*[# 238]+0.122*[# 251]+
          +0.122*[# 252]+0.122*[# 212]+0.122*[# 213]+0.002*[# 160]+0.002*[# 161]+
          +0.002*[# 173]+0.002*[# 174]+0.002*[# 186]+0.002*[# 187]+0.002*[# 199]+
          +0.002*[# 200]+0.001*[# 215]+0.001*[# 216]+0.001*[# 228]+0.001*[# 229]+
          +0.001*[# 241]+0.001*[# 242]+0.001*[# 254]+0.001*[# 255]+
    |psi|^2 = 1.000
     e =   -49.61115 eV
     psi = 0.122*[# 226]+0.122*[# 238]+0.122*[# 212]+0.122*[# 213]+0.122*[# 225]+
          +0.122*[# 239]+0.122*[# 251]+0.122*[# 252]+0.003*[# 215]+0.003*[# 216]+
          +0.003*[# 228]+0.003*[# 229]+0.003*[# 241]+0.003*[# 242]+0.003*[# 254]+
          +0.003*[# 255]+
    |psi|^2 = 1.000
     e =   -49.61115 eV
     psi = 0.122*[# 226]+0.122*[# 238]+0.122*[# 212]+0.122*[# 213]+0.122*[# 225]+
          +0.122*[# 239]+0.122*[# 251]+0.122*[# 252]+0.003*[# 215]+0.003*[# 216]+
          +0.003*[# 228]+0.003*[# 229]+0.003*[# 241]+0.003*[# 242]+0.003*[# 254]+
          +0.003*[# 255]+
    |psi|^2 = 1.000
     e =   -49.18947 eV
     psi = 0.073*[# 108]+0.073*[# 109]+0.073*[# 121]+0.073*[# 122]+0.073*[# 134]+
          +0.073*[# 135]+0.073*[# 147]+0.073*[# 148]+0.026*[#  56]+0.026*[#  57]+
          +0.026*[#  69]+0.026*[#  70]+0.026*[#  82]+0.026*[#  83]+0.026*[#  95]+
          +0.026*[#  96]+0.021*[# 160]+0.021*[# 161]+0.021*[# 173]+0.021*[# 174]+
          +0.021*[# 186]+0.021*[# 187]+0.021*[# 199]+0.021*[# 200]+0.001*[#   4]+
          +0.001*[#   5]+0.001*[#  17]+0.001*[#  18]+0.001*[#  30]+0.001*[#  31]+
          +0.001*[#  43]+0.001*[#  44]+0.001*[# 212]+0.001*[# 213]+0.001*[# 225]+
          +0.001*[# 226]+0.001*[# 238]+0.001*[# 239]+0.001*[# 251]+0.001*[# 252]+
    |psi|^2 = 1.000
     e =   -49.18947 eV
     psi = 0.073*[# 108]+0.073*[# 109]+0.073*[# 121]+0.073*[# 122]+0.073*[# 134]+
          +0.073*[# 135]+0.073*[# 147]+0.073*[# 148]+0.026*[#  56]+0.026*[#  57]+
          +0.026*[#  69]+0.026*[#  70]+0.026*[#  82]+0.026*[#  83]+0.026*[#  95]+
          +0.026*[#  96]+0.021*[# 160]+0.021*[# 161]+0.021*[# 173]+0.021*[# 174]+
          +0.021*[# 186]+0.021*[# 187]+0.021*[# 199]+0.021*[# 200]+0.001*[#   4]+
          +0.001*[#   5]+0.001*[#  17]+0.001*[#  18]+0.001*[#  30]+0.001*[#  31]+
          +0.001*[#  43]+0.001*[#  44]+0.001*[# 212]+0.001*[# 213]+0.001*[# 225]+
          +0.001*[# 226]+0.001*[# 238]+0.001*[# 239]+0.001*[# 251]+0.001*[# 252]+
    |psi|^2 = 1.000
     e =   -49.18819 eV
     psi = 0.281*[# 120]+0.281*[# 133]+0.027*[#  56]+0.027*[#  57]+0.027*[#  69]+
          +0.027*[#  70]+0.027*[#  82]+0.027*[#  83]+0.027*[#  95]+0.027*[#  96]+
          +0.023*[# 160]+0.023*[# 161]+0.023*[# 173]+0.023*[# 174]+0.023*[# 186]+
          +0.023*[# 187]+0.023*[# 199]+0.023*[# 200]+0.004*[#  16]+0.004*[#  29]+
          +0.004*[# 224]+0.004*[# 237]+0.002*[#  19]+0.002*[#  32]+0.002*[# 227]+
          +0.002*[# 240]+
    |psi|^2 = 1.000
     e =   -49.18819 eV
     psi = 0.281*[# 107]+0.281*[# 146]+0.027*[#  56]+0.027*[#  57]+0.027*[#  69]+
          +0.027*[#  70]+0.027*[#  82]+0.027*[#  83]+0.027*[#  95]+0.027*[#  96]+
          +0.023*[# 160]+0.023*[# 161]+0.023*[# 173]+0.023*[# 174]+0.023*[# 186]+
          +0.023*[# 187]+0.023*[# 199]+0.023*[# 200]+0.004*[#   3]+0.004*[#  42]+
          +0.004*[# 211]+0.004*[# 250]+0.002*[#   6]+0.002*[#  45]+0.002*[# 214]+
          +0.002*[# 253]+
    |psi|^2 = 1.000
     e =   -49.17062 eV
     psi = 0.086*[# 108]+0.086*[# 109]+0.086*[# 121]+0.086*[# 135]+0.086*[# 122]+
          +0.086*[# 134]+0.086*[# 147]+0.086*[# 148]+0.036*[#  55]+0.036*[#  68]+
          +0.036*[#  81]+0.036*[#  94]+0.032*[# 159]+0.032*[# 172]+0.032*[# 185]+
          +0.032*[# 198]+0.002*[# 111]+0.002*[# 112]+0.002*[# 124]+0.002*[# 125]+
          +0.002*[# 137]+0.002*[# 138]+0.002*[# 150]+0.002*[# 151]+0.001*[#  54]+
          +0.001*[#  67]+0.001*[#  80]+0.001*[#  93]+0.001*[# 158]+0.001*[# 171]+
          +0.001*[# 184]+0.001*[# 197]+
    |psi|^2 = 1.000
     e =   -49.17062 eV
     psi = 0.086*[# 108]+0.086*[# 109]+0.086*[# 121]+0.086*[# 135]+0.086*[# 122]+
          +0.086*[# 134]+0.086*[# 147]+0.086*[# 148]+0.036*[#  55]+0.036*[#  68]+
          +0.036*[#  81]+0.036*[#  94]+0.032*[# 159]+0.032*[# 172]+0.032*[# 185]+
          +0.032*[# 198]+0.002*[# 111]+0.002*[# 112]+0.002*[# 124]+0.002*[# 125]+
          +0.002*[# 137]+0.002*[# 138]+0.002*[# 150]+0.002*[# 151]+0.001*[#  54]+
          +0.001*[#  67]+0.001*[#  80]+0.001*[#  93]+0.001*[# 158]+0.001*[# 171]+
          +0.001*[# 184]+0.001*[# 197]+
    |psi|^2 = 1.000
     e =   -49.13177 eV
     psi = 0.193*[# 107]+0.193*[# 120]+0.193*[# 133]+0.193*[# 146]+0.029*[#  55]+
          +0.029*[#  68]+0.029*[#  81]+0.029*[#  94]+0.026*[# 159]+0.026*[# 172]+
          +0.026*[# 185]+0.026*[# 198]+
    |psi|^2 = 1.000
     e =   -49.09715 eV
     psi = 0.076*[# 108]+0.076*[# 109]+0.076*[# 121]+0.076*[# 122]+0.076*[# 134]+
          +0.076*[# 135]+0.076*[# 147]+0.076*[# 148]+0.026*[#  56]+0.026*[#  57]+
          +0.026*[#  69]+0.026*[#  70]+0.026*[#  82]+0.026*[#  83]+0.026*[#  95]+
          +0.026*[#  96]+0.021*[# 160]+0.021*[# 161]+0.021*[# 173]+0.021*[# 174]+
          +0.021*[# 186]+0.021*[# 187]+0.021*[# 199]+0.021*[# 200]+
    |psi|^2 = 1.000
     e =   -49.09715 eV
     psi = 0.076*[# 108]+0.076*[# 109]+0.076*[# 121]+0.076*[# 122]+0.076*[# 134]+
          +0.076*[# 135]+0.076*[# 147]+0.076*[# 148]+0.026*[#  56]+0.026*[#  57]+
          +0.026*[#  69]+0.026*[#  70]+0.026*[#  82]+0.026*[#  83]+0.026*[#  95]+
          +0.026*[#  96]+0.021*[# 160]+0.021*[# 161]+0.021*[# 173]+0.021*[# 174]+
          +0.021*[# 186]+0.021*[# 187]+0.021*[# 199]+0.021*[# 200]+
    |psi|^2 = 1.000
     e =   -49.06476 eV
     psi = 0.247*[# 107]+0.247*[# 120]+0.247*[# 133]+0.247*[# 146]+0.002*[# 110]+
          +0.002*[# 123]+0.002*[# 136]+0.002*[# 149]+
    |psi|^2 = 1.000
     e =   -49.02847 eV
     psi = 0.061*[# 160]+0.061*[# 161]+0.061*[# 173]+0.061*[# 174]+0.061*[# 186]+
          +0.061*[# 187]+0.061*[# 199]+0.061*[# 200]+0.058*[#  56]+0.058*[#  57]+
          +0.058*[#  69]+0.058*[#  70]+0.058*[#  82]+0.058*[#  83]+0.058*[#  95]+
          +0.058*[#  96]+0.005*[# 211]+0.005*[# 250]+0.004*[# 106]+0.004*[# 145]+
          +0.004*[#   3]+0.004*[#  42]+0.003*[# 214]+0.003*[# 253]+0.002*[#   6]+
          +0.002*[#  45]+0.002*[# 210]+0.002*[# 249]+0.001*[#   2]+0.001*[#  41]+
    |psi|^2 = 1.000
     e =   -49.02846 eV
     psi = 0.061*[# 160]+0.061*[# 161]+0.061*[# 173]+0.061*[# 174]+0.061*[# 186]+
          +0.061*[# 187]+0.061*[# 199]+0.061*[# 200]+0.058*[#  56]+0.058*[#  57]+
          +0.058*[#  69]+0.058*[#  70]+0.058*[#  82]+0.058*[#  83]+0.058*[#  95]+
          +0.058*[#  96]+0.005*[# 224]+0.005*[# 237]+0.004*[# 119]+0.004*[# 132]+
          +0.004*[#  16]+0.004*[#  29]+0.003*[# 227]+0.003*[# 240]+0.002*[#  19]+
          +0.002*[#  32]+0.002*[# 223]+0.002*[# 236]+0.001*[#  15]+0.001*[#  28]+
    |psi|^2 = 1.000
     e =   -49.01640 eV
     psi = 0.062*[# 160]+0.062*[# 161]+0.062*[# 173]+0.062*[# 174]+0.062*[# 186]+
          +0.062*[# 187]+0.062*[# 199]+0.062*[# 200]+0.059*[#  56]+0.059*[#  57]+
          +0.059*[#  69]+0.059*[#  70]+0.059*[#  82]+0.059*[#  83]+0.059*[#  95]+
          +0.059*[#  96]+0.002*[# 212]+0.002*[# 213]+0.002*[# 225]+0.002*[# 226]+
          +0.002*[# 238]+0.002*[# 239]+0.002*[# 251]+0.002*[# 252]+0.001*[#   4]+
          +0.001*[#   5]+0.001*[#  17]+0.001*[#  18]+0.001*[#  30]+0.001*[#  31]+
          +0.001*[#  43]+0.001*[#  44]+
    |psi|^2 = 1.000
     e =   -49.01640 eV
     psi = 0.062*[# 160]+0.062*[# 161]+0.062*[# 173]+0.062*[# 174]+0.062*[# 186]+
          +0.062*[# 187]+0.062*[# 199]+0.062*[# 200]+0.059*[#  56]+0.059*[#  57]+
          +0.059*[#  69]+0.059*[#  70]+0.059*[#  82]+0.059*[#  83]+0.059*[#  95]+
          +0.059*[#  96]+0.002*[# 212]+0.002*[# 213]+0.002*[# 225]+0.002*[# 226]+
          +0.002*[# 238]+0.002*[# 239]+0.002*[# 251]+0.002*[# 252]+0.001*[#   4]+
          +0.001*[#   5]+0.001*[#  17]+0.001*[#  18]+0.001*[#  30]+0.001*[#  31]+
          +0.001*[#  43]+0.001*[#  44]+
    |psi|^2 = 1.000
     e =   -49.01174 eV
     psi = 0.122*[# 108]+0.122*[# 109]+0.122*[# 121]+0.122*[# 122]+0.122*[# 134]+
          +0.122*[# 135]+0.122*[# 147]+0.122*[# 148]+0.003*[# 111]+0.003*[# 112]+
          +0.003*[# 124]+0.003*[# 125]+0.003*[# 137]+0.003*[# 138]+0.003*[# 150]+
          +0.003*[# 151]+
    |psi|^2 = 1.000
     e =   -49.01174 eV
     psi = 0.122*[# 108]+0.122*[# 109]+0.122*[# 121]+0.122*[# 122]+0.122*[# 134]+
          +0.122*[# 135]+0.122*[# 147]+0.122*[# 148]+0.003*[# 111]+0.003*[# 112]+
          +0.003*[# 124]+0.003*[# 125]+0.003*[# 137]+0.003*[# 138]+0.003*[# 150]+
          +0.003*[# 151]+
    |psi|^2 = 1.000
     e =   -48.97503 eV
     psi = 0.118*[#  56]+0.118*[#  57]+0.118*[#  69]+0.118*[#  70]+0.118*[#  82]+
          +0.118*[#  83]+0.118*[#  95]+0.118*[#  96]+0.004*[# 160]+0.004*[# 161]+
          +0.004*[# 173]+0.004*[# 174]+0.004*[# 186]+0.004*[# 187]+0.004*[# 199]+
          +0.004*[# 200]+0.002*[#  59]+0.002*[#  60]+0.002*[#  72]+0.002*[#  73]+
          +0.002*[#  85]+0.002*[#  86]+0.002*[#  98]+0.002*[#  99]+
    |psi|^2 = 1.000
     e =   -48.97502 eV
     psi = 0.118*[#  56]+0.118*[#  57]+0.118*[#  69]+0.118*[#  70]+0.118*[#  82]+
          +0.118*[#  83]+0.118*[#  95]+0.118*[#  96]+0.004*[# 160]+0.004*[# 161]+
          +0.004*[# 173]+0.004*[# 174]+0.004*[# 186]+0.004*[# 187]+0.004*[# 199]+
          +0.004*[# 200]+0.002*[#  59]+0.002*[#  60]+0.002*[#  72]+0.002*[#  73]+
          +0.002*[#  85]+0.002*[#  86]+0.002*[#  98]+0.002*[#  99]+
    |psi|^2 = 1.000
     e =   -48.96755 eV
     psi = 0.118*[# 160]+0.118*[# 161]+0.118*[# 173]+0.118*[# 174]+0.118*[# 186]+
          +0.118*[# 187]+0.118*[# 199]+0.118*[# 200]+0.004*[#  56]+0.004*[#  57]+
          +0.004*[#  69]+0.004*[#  70]+0.004*[#  82]+0.004*[#  83]+0.004*[#  95]+
          +0.004*[#  96]+0.003*[# 163]+0.003*[# 164]+0.003*[# 176]+0.003*[# 177]+
          +0.003*[# 189]+0.003*[# 190]+0.003*[# 202]+0.003*[# 203]+
    |psi|^2 = 1.000
     e =   -48.96755 eV
     psi = 0.118*[# 160]+0.118*[# 161]+0.118*[# 173]+0.118*[# 174]+0.118*[# 186]+
          +0.118*[# 187]+0.118*[# 199]+0.118*[# 200]+0.004*[#  56]+0.004*[#  57]+
          +0.004*[#  69]+0.004*[#  70]+0.004*[#  82]+0.004*[#  83]+0.004*[#  95]+
          +0.004*[#  96]+0.003*[# 163]+0.003*[# 164]+0.003*[# 176]+0.003*[# 177]+
          +0.003*[# 189]+0.003*[# 190]+0.003*[# 202]+0.003*[# 203]+
    |psi|^2 = 1.000
     e =   -48.96639 eV
     psi = 0.061*[# 160]+0.061*[# 161]+0.061*[# 173]+0.061*[# 174]+0.061*[# 186]+
          +0.061*[# 187]+0.061*[# 199]+0.061*[# 200]+0.060*[#  56]+0.060*[#  57]+
          +0.060*[#  69]+0.060*[#  70]+0.060*[#  82]+0.060*[#  83]+0.060*[#  95]+
          +0.060*[#  96]+
    |psi|^2 = 1.000
     e =   -48.96639 eV
     psi = 0.061*[# 160]+0.061*[# 161]+0.061*[# 173]+0.061*[# 174]+0.061*[# 186]+
          +0.061*[# 187]+0.061*[# 199]+0.061*[# 200]+0.060*[#  56]+0.060*[#  57]+
          +0.060*[#  69]+0.060*[#  70]+0.060*[#  82]+0.060*[#  83]+0.060*[#  95]+
          +0.060*[#  96]+
    |psi|^2 = 1.000
     e =   -48.96168 eV
     psi = 0.126*[#  55]+0.126*[#  68]+0.126*[#  81]+0.126*[#  94]+0.116*[# 159]+
          +0.116*[# 172]+0.116*[# 185]+0.116*[# 198]+0.003*[# 106]+0.003*[# 119]+
          +0.003*[# 132]+0.003*[# 145]+
    |psi|^2 = 1.000
     e =   -48.95677 eV
     psi = 0.151*[#  55]+0.151*[#  68]+0.151*[#  81]+0.151*[#  94]+0.097*[# 159]+
          +0.097*[# 172]+0.097*[# 185]+0.097*[# 198]+
    |psi|^2 = 1.000
     e =   -48.92631 eV
     psi = 0.150*[# 159]+0.150*[# 172]+0.150*[# 185]+0.150*[# 198]+0.096*[#  55]+
          +0.096*[#  68]+0.096*[#  81]+0.096*[#  94]+0.002*[# 162]+0.002*[# 175]+
          +0.002*[# 188]+0.002*[# 201]+0.001*[#  58]+0.001*[#  71]+0.001*[#  84]+
          +0.001*[#  97]+
    |psi|^2 = 1.000
     e =   -48.91781 eV
     psi = 0.125*[#  55]+0.125*[#  68]+0.125*[#  81]+0.125*[#  94]+0.116*[# 159]+
          +0.116*[# 172]+0.116*[# 185]+0.116*[# 198]+0.001*[#  58]+0.001*[#  71]+
          +0.001*[#  84]+0.001*[#  97]+0.001*[#   4]+0.001*[#   5]+0.001*[#  17]+
          +0.001*[#  18]+0.001*[#  30]+0.001*[#  31]+0.001*[#  43]+0.001*[#  44]+
          +0.001*[# 162]+0.001*[# 175]+0.001*[# 188]+0.001*[# 201]+0.001*[# 212]+
          +0.001*[# 213]+0.001*[# 225]+0.001*[# 226]+0.001*[# 238]+0.001*[# 239]+
          +0.001*[# 251]+0.001*[# 252]+
    |psi|^2 = 1.000
     e =   -48.91781 eV
     psi = 0.125*[#  55]+0.125*[#  68]+0.125*[#  81]+0.125*[#  94]+0.116*[# 159]+
          +0.116*[# 172]+0.116*[# 185]+0.116*[# 198]+0.001*[#  58]+0.001*[#  71]+
          +0.001*[#  84]+0.001*[#  97]+0.001*[#   4]+0.001*[#   5]+0.001*[#  17]+
          +0.001*[#  18]+0.001*[#  30]+0.001*[#  31]+0.001*[#  43]+0.001*[#  44]+
          +0.001*[# 162]+0.001*[# 175]+0.001*[# 188]+0.001*[# 201]+0.001*[# 212]+
          +0.001*[# 213]+0.001*[# 225]+0.001*[# 226]+0.001*[# 238]+0.001*[# 239]+
          +0.001*[# 251]+0.001*[# 252]+
    |psi|^2 = 1.000
     e =   -48.90536 eV
     psi = 0.206*[# 120]+0.206*[# 133]+0.036*[# 160]+0.036*[# 161]+0.036*[# 173]+
          +0.036*[# 174]+0.036*[# 186]+0.036*[# 187]+0.036*[# 199]+0.036*[# 200]+
          +0.034*[#  56]+0.034*[#  57]+0.034*[#  69]+0.034*[#  70]+0.034*[#  82]+
          +0.034*[#  83]+0.034*[#  95]+0.034*[#  96]+0.010*[# 123]+0.010*[# 136]+
          +0.001*[# 224]+0.001*[# 237]+0.001*[#  16]+0.001*[#  29]+
    |psi|^2 = 1.000
     e =   -48.90536 eV
     psi = 0.206*[# 107]+0.206*[# 146]+0.036*[# 160]+0.036*[# 161]+0.036*[# 173]+
          +0.036*[# 174]+0.036*[# 186]+0.036*[# 187]+0.036*[# 199]+0.036*[# 200]+
          +0.034*[#  56]+0.034*[#  57]+0.034*[#  69]+0.034*[#  70]+0.034*[#  82]+
          +0.034*[#  83]+0.034*[#  95]+0.034*[#  96]+0.010*[# 110]+0.010*[# 149]+
          +0.001*[# 211]+0.001*[# 250]+0.001*[#   3]+0.001*[#  42]+
    |psi|^2 = 1.000
     e =   -48.90256 eV
     psi = 0.049*[# 108]+0.049*[# 109]+0.049*[# 121]+0.049*[# 122]+0.049*[# 134]+
          +0.049*[# 135]+0.049*[# 147]+0.049*[# 148]+0.037*[# 160]+0.037*[# 161]+
          +0.037*[# 173]+0.037*[# 174]+0.037*[# 186]+0.037*[# 187]+0.037*[# 199]+
          +0.037*[# 200]+0.035*[#  56]+0.035*[#  57]+0.035*[#  69]+0.035*[#  70]+
          +0.035*[#  82]+0.035*[#  83]+0.035*[#  95]+0.035*[#  96]+0.001*[# 111]+
          +0.001*[# 112]+0.001*[# 124]+0.001*[# 125]+0.001*[# 137]+0.001*[# 138]+
          +0.001*[# 150]+0.001*[# 151]+
    |psi|^2 = 1.000
     e =   -48.90256 eV
     psi = 0.049*[# 108]+0.049*[# 109]+0.049*[# 121]+0.049*[# 122]+0.049*[# 134]+
          +0.049*[# 135]+0.049*[# 147]+0.049*[# 148]+0.037*[# 160]+0.037*[# 161]+
          +0.037*[# 173]+0.037*[# 174]+0.037*[# 186]+0.037*[# 187]+0.037*[# 199]+
          +0.037*[# 200]+0.035*[#  56]+0.035*[#  57]+0.035*[#  69]+0.035*[#  70]+
          +0.035*[#  82]+0.035*[#  83]+0.035*[#  95]+0.035*[#  96]+0.001*[# 111]+
          +0.001*[# 112]+0.001*[# 124]+0.001*[# 125]+0.001*[# 137]+0.001*[# 138]+
          +0.001*[# 150]+0.001*[# 151]+
    |psi|^2 = 1.000
     e =   -48.88787 eV
     psi = 0.047*[# 108]+0.047*[# 109]+0.047*[# 121]+0.047*[# 122]+0.047*[# 134]+
          +0.047*[# 135]+0.047*[# 147]+0.047*[# 148]+0.039*[# 160]+0.039*[# 161]+
          +0.039*[# 173]+0.039*[# 174]+0.039*[# 186]+0.039*[# 187]+0.039*[# 199]+
          +0.039*[# 200]+0.035*[#  56]+0.035*[#  57]+0.035*[#  69]+0.035*[#  70]+
          +0.035*[#  82]+0.035*[#  83]+0.035*[#  95]+0.035*[#  96]+0.001*[# 111]+
          +0.001*[# 112]+0.001*[# 124]+0.001*[# 125]+0.001*[# 137]+0.001*[# 138]+
          +0.001*[# 150]+0.001*[# 151]+
    |psi|^2 = 1.000
     e =   -48.88787 eV
     psi = 0.047*[# 108]+0.047*[# 109]+0.047*[# 121]+0.047*[# 122]+0.047*[# 134]+
          +0.047*[# 135]+0.047*[# 147]+0.047*[# 148]+0.039*[# 160]+0.039*[# 161]+
          +0.039*[# 173]+0.039*[# 174]+0.039*[# 186]+0.039*[# 187]+0.039*[# 199]+
          +0.039*[# 200]+0.035*[#  56]+0.035*[#  57]+0.035*[#  69]+0.035*[#  70]+
          +0.035*[#  82]+0.035*[#  83]+0.035*[#  95]+0.035*[#  96]+0.001*[# 111]+
          +0.001*[# 112]+0.001*[# 124]+0.001*[# 125]+0.001*[# 137]+0.001*[# 138]+
          +0.001*[# 150]+0.001*[# 151]+
    |psi|^2 = 1.000
     e =   -48.87533 eV
     psi = 0.102*[# 159]+0.102*[# 172]+0.102*[# 185]+0.102*[# 198]+0.089*[#  55]+
          +0.089*[#  68]+0.089*[#  81]+0.089*[#  94]+0.053*[# 107]+0.053*[# 120]+
          +0.053*[# 133]+0.053*[# 146]+0.001*[# 210]+0.001*[# 223]+0.001*[# 236]+
          +0.001*[# 249]+0.001*[#   2]+0.001*[#  15]+0.001*[#  28]+0.001*[#  41]+
    |psi|^2 = 1.000
     e =   -48.85551 eV
     psi = 0.092*[# 159]+0.092*[# 172]+0.092*[# 185]+0.092*[# 198]+0.079*[#  55]+
          +0.079*[#  68]+0.079*[#  81]+0.079*[#  94]+0.035*[# 108]+0.035*[# 109]+
          +0.035*[# 121]+0.035*[# 122]+0.035*[# 134]+0.035*[# 135]+0.035*[# 147]+
          +0.035*[# 148]+0.002*[# 162]+0.002*[# 175]+0.002*[# 188]+0.002*[# 201]+
          +0.001*[#  58]+0.001*[#  71]+0.001*[#  84]+0.001*[#  97]+
    |psi|^2 = 1.000
     e =   -48.85551 eV
     psi = 0.092*[# 159]+0.092*[# 172]+0.092*[# 185]+0.092*[# 198]+0.079*[#  55]+
          +0.079*[#  68]+0.079*[#  81]+0.079*[#  94]+0.035*[# 108]+0.035*[# 109]+
          +0.035*[# 121]+0.035*[# 122]+0.035*[# 134]+0.035*[# 135]+0.035*[# 147]+
          +0.035*[# 148]+0.002*[# 162]+0.002*[# 175]+0.002*[# 188]+0.002*[# 201]+
          +0.001*[#  58]+0.001*[#  71]+0.001*[#  84]+0.001*[#  97]+
    |psi|^2 = 1.000
     e =    -2.95936 eV
     psi = 0.057*[# 106]+0.057*[# 119]+0.057*[# 132]+0.057*[# 145]+0.047*[#  54]+
          +0.047*[#  67]+0.047*[#  80]+0.047*[#  93]+0.047*[# 158]+0.047*[# 171]+
          +0.047*[# 184]+0.047*[# 197]+0.025*[# 210]+0.025*[# 223]+0.025*[# 236]+
          +0.025*[# 249]+0.024*[#   2]+0.024*[#  15]+0.024*[#  28]+0.024*[#  41]+
          +0.009*[#   6]+0.009*[#  19]+0.009*[#  32]+0.009*[#  45]+0.009*[# 214]+
          +0.009*[# 227]+0.009*[# 240]+0.009*[# 253]+0.008*[# 105]+0.008*[# 118]+
          +0.008*[# 131]+0.008*[# 144]+0.006*[#  53]+0.006*[#  66]+0.006*[#  79]+
          +0.006*[#  92]+0.006*[# 157]+0.006*[# 170]+0.006*[# 183]+0.006*[# 196]+
          +0.003*[#  58]+0.003*[#  71]+0.003*[#  84]+0.003*[#  97]+0.003*[# 162]+
          +0.003*[# 175]+0.003*[# 188]+0.003*[# 201]+0.001*[#   1]+0.001*[#  14]+
          +0.001*[#  27]+0.001*[#  40]+0.002*[# 209]+0.002*[# 222]+0.002*[# 235]+
          +0.002*[# 248]+
    |psi|^2 = 0.997
     e =    -1.48330 eV
     psi = 0.058*[# 110]+0.058*[# 123]+0.058*[# 136]+0.058*[# 149]+0.033*[#   2]+
          +0.033*[#  15]+0.033*[#  28]+0.033*[#  41]+0.034*[# 210]+0.034*[# 223]+
          +0.034*[# 236]+0.034*[# 249]+0.025*[# 158]+0.025*[# 171]+0.025*[# 184]+
          +0.025*[# 197]+0.025*[#  54]+0.025*[#  67]+0.025*[#  80]+0.025*[#  93]+
          +0.019*[#  58]+0.019*[#  71]+0.019*[#  84]+0.019*[#  97]+0.019*[# 162]+
          +0.019*[# 175]+0.019*[# 188]+0.019*[# 201]+0.005*[#  53]+0.005*[#  66]+
          +0.005*[#  79]+0.005*[#  92]+0.005*[# 157]+0.005*[# 170]+0.005*[# 183]+
          +0.005*[# 196]+0.005*[#   1]+0.005*[#  14]+0.005*[#  27]+0.005*[#  40]+
          +0.005*[# 209]+0.005*[# 222]+0.005*[# 235]+0.005*[# 248]+0.003*[#  61]+
          +0.003*[#  74]+0.003*[#  87]+0.003*[# 100]+0.003*[# 165]+0.003*[# 178]+
          +0.003*[# 191]+0.003*[# 204]+0.002*[#   6]+0.002*[#  19]+0.002*[#  32]+
          +0.002*[#  45]+0.002*[# 107]+0.002*[# 120]+0.002*[# 133]+0.002*[# 146]+
          +0.002*[# 214]+0.002*[# 227]+0.002*[# 240]+0.002*[# 253]+
    |psi|^2 = 0.996
     e =     0.09455 eV
     psi = 0.033*[# 114]+0.033*[# 115]+0.033*[# 127]+0.033*[# 128]+0.033*[# 140]+
          +0.033*[# 141]+0.033*[# 153]+0.033*[# 154]+0.031*[# 168]+0.031*[# 181]+
          +0.031*[# 194]+0.031*[# 207]+0.030*[#  64]+0.030*[#  77]+0.030*[#  90]+
          +0.030*[# 103]+0.018*[# 158]+0.018*[# 171]+0.018*[# 184]+0.018*[# 197]+
          +0.018*[#  54]+0.018*[#  67]+0.018*[#  80]+0.018*[#  93]+0.016*[# 218]+
          +0.016*[# 219]+0.016*[# 231]+0.016*[# 232]+0.016*[# 244]+0.016*[# 245]+
          +0.016*[# 257]+0.016*[# 258]+0.015*[#  10]+0.015*[#  11]+0.015*[#  23]+
          +0.015*[#  24]+0.015*[#  36]+0.015*[#  37]+0.015*[#  49]+0.015*[#  50]+
          +0.006*[#  61]+0.006*[#  74]+0.006*[#  87]+0.006*[# 100]+0.006*[# 165]+
          +0.006*[# 178]+0.006*[# 191]+0.006*[# 204]+0.003*[# 215]+0.003*[# 216]+
          +0.003*[# 228]+0.003*[# 229]+0.003*[# 241]+0.003*[# 242]+0.003*[# 254]+
          +0.003*[# 255]+0.003*[#   7]+0.003*[#   8]+0.003*[#  20]+0.003*[#  21]+
          +0.003*[#  33]+0.003*[#  34]+0.003*[#  46]+0.003*[#  47]+
    |psi|^2 = 0.998
     e =     0.09455 eV
     psi = 0.033*[# 114]+0.033*[# 115]+0.033*[# 127]+0.033*[# 128]+0.033*[# 140]+
          +0.033*[# 141]+0.033*[# 153]+0.033*[# 154]+0.031*[# 168]+0.031*[# 181]+
          +0.031*[# 194]+0.031*[# 207]+0.030*[#  64]+0.030*[#  77]+0.030*[#  90]+
          +0.030*[# 103]+0.018*[# 158]+0.018*[# 171]+0.018*[# 184]+0.018*[# 197]+
          +0.018*[#  54]+0.018*[#  67]+0.018*[#  80]+0.018*[#  93]+0.016*[# 218]+
          +0.016*[# 219]+0.016*[# 231]+0.016*[# 232]+0.016*[# 244]+0.016*[# 245]+
          +0.016*[# 257]+0.016*[# 258]+0.015*[#  10]+0.015*[#  11]+0.015*[#  23]+
          +0.015*[#  24]+0.015*[#  36]+0.015*[#  37]+0.015*[#  49]+0.015*[#  50]+
          +0.006*[#  61]+0.006*[#  74]+0.006*[#  87]+0.006*[# 100]+0.006*[# 165]+
          +0.006*[# 178]+0.006*[# 191]+0.006*[# 204]+0.003*[# 215]+0.003*[# 216]+
          +0.003*[# 228]+0.003*[# 229]+0.003*[# 241]+0.003*[# 242]+0.003*[# 254]+
          +0.003*[# 255]+0.003*[#   7]+0.003*[#   8]+0.003*[#  20]+0.003*[#  21]+
          +0.003*[#  33]+0.003*[#  34]+0.003*[#  46]+0.003*[#  47]+
    |psi|^2 = 0.998
     e =     0.23083 eV
     psi = 0.047*[#  58]+0.047*[#  71]+0.047*[#  84]+0.047*[#  97]+0.047*[# 113]+
          +0.047*[# 126]+0.047*[# 139]+0.047*[# 152]+0.046*[# 162]+0.046*[# 175]+
          +0.046*[# 188]+0.046*[# 201]+0.026*[#   2]+0.026*[#  15]+0.026*[#  28]+
          +0.026*[#  41]+0.026*[# 210]+0.026*[# 223]+0.026*[# 236]+0.026*[# 249]+
          +0.012*[#   9]+0.012*[#  22]+0.012*[#  35]+0.012*[#  48]+0.012*[# 217]+
          +0.012*[# 230]+0.012*[# 243]+0.012*[# 256]+0.011*[# 106]+0.011*[# 119]+
          +0.011*[# 132]+0.011*[# 145]+0.004*[# 105]+0.004*[# 118]+0.004*[# 131]+
          +0.004*[# 144]+0.003*[# 165]+0.003*[# 178]+0.003*[# 191]+0.003*[# 204]+
          +0.003*[#  61]+0.003*[#  74]+0.003*[#  87]+0.003*[# 100]+0.002*[#   1]+
          +0.002*[#  14]+0.002*[#  27]+0.002*[#  40]+0.002*[# 209]+0.002*[# 222]+
          +0.002*[# 235]+0.002*[# 248]+0.002*[#  55]+0.002*[#  68]+0.002*[#  81]+
          +0.002*[#  94]+0.002*[# 159]+0.002*[# 172]+0.002*[# 185]+0.002*[# 198]+
          +0.001*[#   6]+0.001*[#  19]+0.001*[#  32]+0.001*[#  45]+0.001*[# 214]+
          +0.001*[# 227]+0.001*[# 240]+0.001*[# 253]+
    |psi|^2 = 0.996
     e =     0.23968 eV
     psi = 0.121*[# 116]+0.121*[# 155]+0.070*[# 119]+0.070*[# 132]+0.023*[#  62]+
          +0.023*[#  63]+0.023*[#  75]+0.023*[#  76]+0.023*[#  88]+0.023*[#  89]+
          +0.023*[# 101]+0.023*[# 102]+0.024*[# 166]+0.024*[# 167]+0.024*[# 179]+
          +0.024*[# 180]+0.024*[# 192]+0.024*[# 193]+0.024*[# 205]+0.024*[# 206]+
          +0.016*[# 230]+0.016*[# 243]+0.015*[#  22]+0.015*[#  35]+0.008*[#  59]+
          +0.008*[#  60]+0.008*[#  72]+0.008*[#  73]+0.008*[#  85]+0.008*[#  86]+
          +0.008*[#  98]+0.008*[#  99]+0.007*[# 163]+0.007*[# 164]+0.007*[# 176]+
          +0.007*[# 177]+0.007*[# 189]+0.007*[# 190]+0.007*[# 202]+0.007*[# 203]+
          +0.005*[# 220]+0.005*[# 259]+0.005*[#  12]+0.005*[#  51]+0.005*[# 118]+
          +0.005*[# 126]+0.005*[# 131]+0.005*[# 139]+0.002*[# 227]+0.002*[# 240]+
          +0.002*[#  15]+0.002*[#  19]+0.002*[#  28]+0.002*[#  32]+0.002*[# 223]+
          +0.002*[# 236]+
    |psi|^2 = 0.998
     e =     0.23968 eV
     psi = 0.121*[# 129]+0.121*[# 142]+0.070*[# 106]+0.070*[# 145]+0.023*[#  62]+
          +0.023*[#  63]+0.023*[#  75]+0.023*[#  76]+0.023*[#  88]+0.023*[#  89]+
          +0.023*[# 101]+0.023*[# 102]+0.024*[# 166]+0.024*[# 167]+0.024*[# 179]+
          +0.024*[# 180]+0.024*[# 192]+0.024*[# 193]+0.024*[# 205]+0.024*[# 206]+
          +0.016*[# 217]+0.016*[# 256]+0.015*[#   9]+0.015*[#  48]+0.008*[#  59]+
          +0.008*[#  60]+0.008*[#  72]+0.008*[#  73]+0.008*[#  85]+0.008*[#  86]+
          +0.008*[#  98]+0.008*[#  99]+0.007*[# 163]+0.007*[# 164]+0.007*[# 176]+
          +0.007*[# 177]+0.007*[# 189]+0.007*[# 190]+0.007*[# 202]+0.007*[# 203]+
          +0.005*[# 233]+0.005*[# 246]+0.005*[#  25]+0.005*[#  38]+0.005*[# 105]+
          +0.005*[# 113]+0.005*[# 144]+0.005*[# 152]+0.002*[# 214]+0.002*[# 253]+
          +0.002*[#   2]+0.002*[#   6]+0.002*[#  41]+0.002*[#  45]+0.002*[# 210]+
          +0.002*[# 249]+
    |psi|^2 = 0.998
     e =     0.28780 eV
     psi = 0.034*[#  64]+0.034*[#  77]+0.034*[#  90]+0.034*[# 103]+0.033*[# 168]+
          +0.033*[# 181]+0.033*[# 194]+0.033*[# 207]+0.023*[# 111]+0.023*[# 112]+
          +0.023*[# 124]+0.023*[# 125]+0.023*[# 137]+0.023*[# 138]+0.023*[# 150]+
          +0.023*[# 151]+0.020*[#  54]+0.020*[#  67]+0.020*[#  80]+0.020*[#  93]+
          +0.019*[# 158]+0.019*[# 171]+0.019*[# 184]+0.019*[# 197]+0.018*[#  10]+
          +0.018*[#  11]+0.018*[#  23]+0.018*[#  24]+0.018*[#  36]+0.018*[#  37]+
          +0.018*[#  49]+0.018*[#  50]+0.017*[# 218]+0.017*[# 219]+0.017*[# 231]+
          +0.017*[# 232]+0.017*[# 244]+0.017*[# 245]+0.017*[# 257]+0.017*[# 258]+
          +0.004*[#   7]+0.004*[#   8]+0.004*[#  20]+0.004*[#  21]+0.004*[#  33]+
          +0.004*[#  34]+0.004*[#  46]+0.004*[#  47]+0.004*[# 215]+0.004*[# 216]+
          +0.004*[# 228]+0.004*[# 229]+0.004*[# 241]+0.004*[# 242]+0.004*[# 254]+
          +0.004*[# 255]+0.002*[#  53]+0.002*[#  66]+0.002*[#  79]+0.002*[#  92]+
          +0.002*[# 157]+0.002*[# 170]+0.002*[# 183]+0.002*[# 196]+0.001*[# 108]+
          +0.001*[# 109]+0.001*[# 121]+0.001*[# 122]+0.001*[# 134]+0.001*[# 135]+
          +0.001*[# 147]+0.001*[# 148]+
    |psi|^2 = 0.996
     e =     0.28781 eV
     psi = 0.034*[#  64]+0.034*[#  77]+0.034*[#  90]+0.034*[# 103]+0.033*[# 168]+
          +0.033*[# 181]+0.033*[# 194]+0.033*[# 207]+0.023*[# 111]+0.023*[# 112]+
          +0.023*[# 124]+0.023*[# 125]+0.023*[# 137]+0.023*[# 138]+0.023*[# 150]+
          +0.023*[# 151]+0.020*[#  54]+0.020*[#  67]+0.020*[#  80]+0.020*[#  93]+
          +0.019*[# 158]+0.019*[# 171]+0.019*[# 184]+0.019*[# 197]+0.018*[#  10]+
          +0.018*[#  11]+0.018*[#  23]+0.018*[#  24]+0.018*[#  36]+0.018*[#  37]+
          +0.018*[#  49]+0.018*[#  50]+0.017*[# 218]+0.017*[# 219]+0.017*[# 231]+
          +0.017*[# 232]+0.017*[# 244]+0.017*[# 245]+0.017*[# 257]+0.017*[# 258]+
          +0.004*[#   7]+0.004*[#   8]+0.004*[#  20]+0.004*[#  21]+0.004*[#  33]+
          +0.004*[#  34]+0.004*[#  46]+0.004*[#  47]+0.004*[# 215]+0.004*[# 216]+
          +0.004*[# 228]+0.004*[# 229]+0.004*[# 241]+0.004*[# 242]+0.004*[# 254]+
          +0.004*[# 255]+0.002*[#  53]+0.002*[#  66]+0.002*[#  79]+0.002*[#  92]+
          +0.002*[# 157]+0.002*[# 170]+0.002*[# 183]+0.002*[# 196]+0.001*[# 108]+
          +0.001*[# 109]+0.001*[# 121]+0.001*[# 122]+0.001*[# 134]+0.001*[# 135]+
          +0.001*[# 147]+0.001*[# 148]+
    |psi|^2 = 0.996
     e =     0.32436 eV
     psi = 0.068*[#  65]+0.068*[#  78]+0.068*[#  91]+0.068*[# 104]+0.067*[# 169]+
          +0.067*[# 182]+0.067*[# 195]+0.067*[# 208]+0.044*[# 113]+0.044*[# 126]+
          +0.044*[# 139]+0.044*[# 152]+0.018*[#   9]+0.018*[#  22]+0.018*[#  35]+
          +0.018*[#  48]+0.018*[# 217]+0.018*[# 230]+0.018*[# 243]+0.018*[# 256]+
          +0.017*[# 106]+0.017*[# 119]+0.017*[# 132]+0.017*[# 145]+0.005*[#   2]+
          +0.005*[#  15]+0.005*[#  28]+0.005*[#  41]+0.005*[# 210]+0.005*[# 223]+
          +0.005*[# 236]+0.005*[# 249]+0.003*[#   6]+0.003*[#  19]+0.003*[#  32]+
          +0.003*[#  45]+0.003*[# 214]+0.003*[# 227]+0.003*[# 240]+0.003*[# 253]+
    |psi|^2 = 0.999
     e =     0.32676 eV
     psi = 0.071*[# 116]+0.071*[# 129]+0.071*[# 142]+0.071*[# 155]+0.059*[# 168]+
          +0.059*[# 181]+0.059*[# 194]+0.059*[# 207]+0.058*[#  64]+0.058*[#  77]+
          +0.058*[#  90]+0.058*[# 103]+0.032*[# 220]+0.032*[# 233]+0.032*[# 246]+
          +0.032*[# 259]+0.029*[#  12]+0.029*[#  25]+0.029*[#  38]+0.029*[#  51]+
    |psi|^2 = 0.995
     e =     0.36175 eV
     psi = 0.056*[# 113]+0.056*[# 126]+0.056*[# 139]+0.056*[# 152]+0.052*[#  61]+
          +0.052*[#  74]+0.052*[#  87]+0.052*[# 100]+0.051*[# 165]+0.051*[# 178]+
          +0.051*[# 191]+0.051*[# 204]+0.038*[#   9]+0.038*[#  22]+0.038*[#  35]+
          +0.038*[#  48]+0.037*[# 217]+0.037*[# 230]+0.037*[# 243]+0.037*[# 256]+
          +0.004*[#   2]+0.004*[#  15]+0.004*[#  28]+0.004*[#  41]+0.004*[# 210]+
          +0.004*[# 223]+0.004*[# 236]+0.004*[# 249]+0.003*[#   6]+0.003*[#  19]+
          +0.003*[#  32]+0.003*[#  45]+0.003*[# 214]+0.003*[# 227]+0.003*[# 240]+
          +0.003*[# 253]+
    |psi|^2 = 0.994
     e =     0.46634 eV
     psi = 0.094*[# 117]+0.094*[# 130]+0.094*[# 143]+0.094*[# 156]+0.033*[#  13]+
          +0.033*[#  26]+0.033*[#  39]+0.033*[#  52]+0.032*[# 221]+0.032*[# 234]+
          +0.032*[# 247]+0.032*[# 260]+0.031*[#  61]+0.031*[#  74]+0.031*[#  87]+
          +0.031*[# 100]+0.031*[# 165]+0.031*[# 178]+0.031*[# 191]+0.031*[# 204]+
          +0.013*[#  54]+0.013*[#  67]+0.013*[#  80]+0.013*[#  93]+0.013*[# 158]+
          +0.013*[# 171]+0.013*[# 184]+0.013*[# 197]+
    |psi|^2 = 0.999
     e =     0.71404 eV
     psi = 0.060*[# 217]+0.060*[# 230]+0.060*[# 243]+0.060*[# 256]+0.058*[#   9]+
          +0.058*[#  22]+0.058*[#  35]+0.058*[#  48]+0.041*[# 165]+0.041*[# 178]+
          +0.041*[# 191]+0.041*[# 204]+0.040*[#  61]+0.040*[#  74]+0.040*[#  87]+
          +0.040*[# 100]+0.010*[# 110]+0.010*[# 123]+0.010*[# 136]+0.010*[# 149]+
          +0.007*[# 162]+0.007*[# 175]+0.007*[# 188]+0.007*[# 201]+0.007*[# 210]+
          +0.007*[# 223]+0.007*[# 236]+0.007*[# 249]+0.007*[#   2]+0.007*[#  15]+
          +0.007*[#  28]+0.007*[#  41]+0.007*[#  58]+0.007*[#  71]+0.007*[#  84]+
          +0.007*[#  97]+0.004*[# 214]+0.004*[# 227]+0.004*[# 240]+0.004*[# 253]+
          +0.004*[#   6]+0.004*[#  19]+0.004*[#  32]+0.004*[#  45]+0.002*[#  54]+
          +0.002*[#  67]+0.002*[#  80]+0.002*[#  93]+0.002*[# 158]+0.002*[# 171]+
          +0.002*[# 184]+0.002*[# 197]+
    |psi|^2 = 0.995
     e =     0.78741 eV
     psi = 0.095*[# 220]+0.095*[# 259]+0.082*[#  12]+0.082*[#  51]+0.039*[# 223]+
          +0.039*[# 236]+0.038*[# 126]+0.038*[# 139]+0.035*[#  15]+0.035*[#  28]+
          +0.017*[# 163]+0.017*[# 164]+0.017*[# 176]+0.017*[# 177]+0.017*[# 189]+
          +0.017*[# 190]+0.017*[# 202]+0.017*[# 203]+0.015*[#  59]+0.015*[#  60]+
          +0.015*[#  72]+0.015*[#  73]+0.015*[#  85]+0.015*[#  86]+0.015*[#  98]+
          +0.015*[#  99]+0.009*[# 116]+0.009*[# 155]+0.007*[# 119]+0.007*[# 132]+
          +0.006*[# 166]+0.006*[# 167]+0.006*[# 179]+0.006*[# 180]+0.006*[# 192]+
          +0.006*[# 193]+0.006*[# 205]+0.006*[# 206]+0.005*[#  62]+0.005*[#  63]+
          +0.005*[#  75]+0.005*[#  76]+0.005*[#  88]+0.005*[#  89]+0.005*[# 101]+
          +0.005*[# 102]+0.004*[# 118]+0.004*[# 131]+0.003*[#  19]+0.003*[#  32]+
          +0.003*[# 227]+0.003*[# 240]+0.002*[# 222]+0.002*[# 235]+0.002*[#  14]+
          +0.002*[#  27]+
    |psi|^2 = 0.998
     e =     0.78741 eV
     psi = 0.095*[# 233]+0.095*[# 246]+0.082*[#  25]+0.082*[#  38]+0.039*[# 210]+
          +0.039*[# 249]+0.038*[# 113]+0.038*[# 152]+0.035*[#   2]+0.035*[#  41]+
          +0.017*[# 163]+0.017*[# 164]+0.017*[# 176]+0.017*[# 177]+0.017*[# 189]+
          +0.017*[# 190]+0.017*[# 202]+0.017*[# 203]+0.015*[#  59]+0.015*[#  60]+
          +0.015*[#  72]+0.015*[#  73]+0.015*[#  85]+0.015*[#  86]+0.015*[#  98]+
          +0.015*[#  99]+0.009*[# 129]+0.009*[# 142]+0.007*[# 106]+0.007*[# 145]+
          +0.006*[# 166]+0.006*[# 167]+0.006*[# 179]+0.006*[# 180]+0.006*[# 192]+
          +0.006*[# 193]+0.006*[# 205]+0.006*[# 206]+0.005*[#  62]+0.005*[#  63]+
          +0.005*[#  75]+0.005*[#  76]+0.005*[#  88]+0.005*[#  89]+0.005*[# 101]+
          +0.005*[# 102]+0.004*[# 105]+0.004*[# 144]+0.003*[#   6]+0.003*[#  45]+
          +0.003*[# 214]+0.003*[# 253]+0.002*[# 209]+0.002*[# 248]+0.002*[#   1]+
          +0.002*[#  40]+
    |psi|^2 = 0.998
     e =     0.86153 eV
     psi = 0.075*[# 220]+0.075*[# 233]+0.075*[# 246]+0.075*[# 259]+0.073*[#  12]+
          +0.073*[#  25]+0.073*[#  38]+0.073*[#  51]+0.051*[#  64]+0.051*[#  77]+
          +0.051*[#  90]+0.051*[# 103]+0.049*[# 168]+0.049*[# 181]+0.049*[# 194]+
          +0.049*[# 207]+
    |psi|^2 = 0.996
     e =     0.86961 eV
     psi = 0.118*[#  12]+0.118*[#  51]+0.106*[# 220]+0.107*[# 259]+0.038*[#  15]+
          +0.038*[#  28]+0.033*[# 223]+0.033*[# 236]+0.016*[#  62]+0.016*[#  63]+
          +0.016*[#  75]+0.016*[#  76]+0.016*[#  88]+0.016*[#  89]+0.016*[# 101]+
          +0.016*[# 102]+0.015*[# 166]+0.015*[# 167]+0.015*[# 179]+0.015*[# 180]+
          +0.015*[# 192]+0.015*[# 193]+0.015*[# 205]+0.015*[# 206]+0.012*[# 230]+
          +0.012*[# 243]+0.010*[#  22]+0.010*[#  35]+0.007*[#  59]+0.007*[#  60]+
          +0.007*[#  72]+0.007*[#  73]+0.007*[#  85]+0.007*[#  86]+0.007*[#  98]+
          +0.007*[#  99]+0.006*[# 163]+0.006*[# 164]+0.006*[# 176]+0.006*[# 177]+
          +0.006*[# 189]+0.006*[# 190]+0.006*[# 202]+0.006*[# 203]+0.003*[# 123]+
          +0.003*[# 136]+0.001*[#  14]+0.001*[#  27]+0.001*[# 222]+0.001*[# 235]+
    |psi|^2 = 0.998
     e =     0.86961 eV
     psi = 0.118*[#  25]+0.118*[#  38]+0.107*[# 233]+0.107*[# 246]+0.038*[#   2]+
          +0.038*[#  41]+0.033*[# 210]+0.033*[# 249]+0.016*[#  62]+0.016*[#  63]+
          +0.016*[#  75]+0.016*[#  76]+0.016*[#  88]+0.016*[#  89]+0.016*[# 101]+
          +0.016*[# 102]+0.015*[# 166]+0.015*[# 167]+0.015*[# 179]+0.015*[# 180]+
          +0.015*[# 192]+0.015*[# 193]+0.015*[# 205]+0.015*[# 206]+0.012*[# 217]+
          +0.012*[# 256]+0.010*[#   9]+0.010*[#  48]+0.007*[#  59]+0.007*[#  60]+
          +0.007*[#  72]+0.007*[#  73]+0.007*[#  85]+0.007*[#  86]+0.007*[#  98]+
          +0.007*[#  99]+0.006*[# 163]+0.006*[# 164]+0.006*[# 176]+0.006*[# 177]+
          +0.006*[# 189]+0.006*[# 190]+0.006*[# 202]+0.006*[# 203]+0.003*[# 110]+
          +0.003*[# 149]+0.001*[#   1]+0.001*[#  40]+0.001*[# 209]+0.001*[# 248]+
    |psi|^2 = 0.998
     e =     1.11755 eV
     psi = 0.080*[# 169]+0.080*[# 182]+0.080*[# 195]+0.080*[# 208]+0.079*[#  65]+
          +0.079*[#  78]+0.079*[#  91]+0.079*[# 104]+0.029*[#   9]+0.029*[#  22]+
          +0.029*[#  35]+0.029*[#  48]+0.029*[# 217]+0.029*[# 230]+0.029*[# 243]+
          +0.029*[# 256]+0.015*[# 110]+0.015*[# 123]+0.015*[# 136]+0.015*[# 149]+
          +0.006*[# 210]+0.006*[# 223]+0.006*[# 236]+0.006*[# 249]+0.006*[#   2]+
          +0.006*[#  15]+0.006*[#  28]+0.006*[#  41]+0.002*[#   6]+0.002*[#  19]+
          +0.002*[#  32]+0.002*[#  45]+0.002*[# 214]+0.002*[# 227]+0.002*[# 240]+
          +0.002*[# 253]+
    |psi|^2 = 0.999
     e =     1.16460 eV
     psi = 0.106*[#  13]+0.106*[#  26]+0.106*[#  39]+0.106*[#  52]+0.102*[# 221]+
          +0.102*[# 234]+0.102*[# 247]+0.102*[# 260]+0.012*[# 165]+0.012*[# 178]+
          +0.012*[# 191]+0.012*[# 204]+0.011*[#  61]+0.011*[#  74]+0.011*[#  87]+
          +0.011*[# 100]+0.005*[# 158]+0.005*[# 171]+0.005*[# 184]+0.005*[# 197]+
          +0.004*[#  54]+0.005*[#  58]+0.004*[#  67]+0.005*[#  71]+0.004*[#  80]+
          +0.005*[#  84]+0.004*[#  93]+0.005*[#  97]+0.004*[# 162]+0.004*[# 175]+
          +0.004*[# 188]+0.004*[# 201]+
    |psi|^2 = 0.999
     e =     1.40974 eV
     psi = 0.038*[#  10]+0.038*[#  11]+0.038*[#  23]+0.038*[#  24]+0.038*[#  36]+
          +0.038*[#  37]+0.038*[#  49]+0.038*[#  50]+0.030*[# 218]+0.030*[# 219]+
          +0.030*[# 231]+0.030*[# 232]+0.030*[# 244]+0.030*[# 245]+0.030*[# 257]+
          +0.030*[# 258]+0.029*[#  62]+0.029*[#  63]+0.029*[#  75]+0.029*[#  76]+
          +0.029*[#  88]+0.029*[#  89]+0.029*[# 101]+0.029*[# 102]+0.023*[# 166]+
          +0.023*[# 167]+0.023*[# 179]+0.023*[# 180]+0.023*[# 192]+0.023*[# 193]+
          +0.023*[# 205]+0.023*[# 206]+0.001*[# 111]+0.001*[# 112]+0.001*[# 124]+
          +0.001*[# 125]+0.001*[# 137]+0.001*[# 138]+0.001*[# 150]+0.001*[# 151]+
          +0.001*[#   7]+0.001*[#   8]+0.001*[#  20]+0.001*[#  21]+0.001*[#  33]+
          +0.001*[#  34]+0.001*[#  46]+0.001*[#  47]+
    |psi|^2 = 0.999
     e =     1.40974 eV
     psi = 0.038*[#  10]+0.038*[#  11]+0.038*[#  23]+0.038*[#  24]+0.038*[#  36]+
          +0.038*[#  37]+0.038*[#  49]+0.038*[#  50]+0.030*[# 218]+0.030*[# 219]+
          +0.030*[# 231]+0.030*[# 232]+0.030*[# 244]+0.030*[# 245]+0.030*[# 257]+
          +0.030*[# 258]+0.029*[#  62]+0.029*[#  63]+0.029*[#  75]+0.029*[#  76]+
          +0.029*[#  88]+0.029*[#  89]+0.029*[# 101]+0.029*[# 102]+0.023*[# 166]+
          +0.023*[# 167]+0.023*[# 179]+0.023*[# 180]+0.023*[# 192]+0.023*[# 193]+
          +0.023*[# 205]+0.023*[# 206]+0.001*[# 111]+0.001*[# 112]+0.001*[# 124]+
          +0.001*[# 125]+0.001*[# 137]+0.001*[# 138]+0.001*[# 150]+0.001*[# 151]+
          +0.001*[#   7]+0.001*[#   8]+0.001*[#  20]+0.001*[#  21]+0.001*[#  33]+
          +0.001*[#  34]+0.001*[#  46]+0.001*[#  47]+
    |psi|^2 = 0.999
     e =     1.48506 eV
     psi = 0.035*[# 218]+0.035*[# 219]+0.035*[# 231]+0.035*[# 232]+0.035*[# 244]+
          +0.035*[# 245]+0.035*[# 257]+0.035*[# 258]+0.028*[#  10]+0.028*[#  11]+
          +0.028*[#  23]+0.028*[#  24]+0.028*[#  36]+0.028*[#  37]+0.028*[#  49]+
          +0.028*[#  50]+0.028*[# 166]+0.028*[# 167]+0.028*[# 179]+0.028*[# 180]+
          +0.028*[# 192]+0.028*[# 193]+0.028*[# 205]+0.028*[# 206]+0.022*[#  62]+
          +0.022*[#  63]+0.022*[#  75]+0.022*[#  76]+0.022*[#  88]+0.022*[#  89]+
          +0.022*[# 101]+0.022*[# 102]+0.009*[# 114]+0.009*[# 115]+0.009*[# 127]+
          +0.009*[# 128]+0.009*[# 140]+0.009*[# 141]+0.009*[# 153]+0.009*[# 154]+
    |psi|^2 = 0.998
     e =     1.48506 eV
     psi = 0.035*[# 218]+0.035*[# 219]+0.035*[# 231]+0.035*[# 232]+0.035*[# 244]+
          +0.035*[# 245]+0.035*[# 257]+0.035*[# 258]+0.028*[#  10]+0.028*[#  11]+
          +0.028*[#  23]+0.028*[#  24]+0.028*[#  36]+0.028*[#  37]+0.028*[#  49]+
          +0.028*[#  50]+0.028*[# 166]+0.028*[# 167]+0.028*[# 179]+0.028*[# 180]+
          +0.028*[# 192]+0.028*[# 193]+0.028*[# 205]+0.028*[# 206]+0.022*[#  62]+
          +0.022*[#  63]+0.022*[#  75]+0.022*[#  76]+0.022*[#  88]+0.022*[#  89]+
          +0.022*[# 101]+0.022*[# 102]+0.009*[# 114]+0.009*[# 115]+0.009*[# 127]+
          +0.009*[# 128]+0.009*[# 140]+0.009*[# 141]+0.009*[# 153]+0.009*[# 154]+
    |psi|^2 = 0.998
     e =     1.62144 eV
     psi = 0.078*[# 221]+0.078*[# 234]+0.078*[# 247]+0.078*[# 260]+0.075*[# 117]+
          +0.075*[# 130]+0.075*[# 143]+0.075*[# 156]+0.074*[#  13]+0.074*[#  26]+
          +0.074*[#  39]+0.074*[#  52]+0.011*[# 162]+0.011*[# 175]+0.011*[# 188]+
          +0.011*[# 201]+0.010*[#  58]+0.010*[#  71]+0.010*[#  84]+0.010*[#  97]+
    |psi|^2 = 0.999
     e =     1.71251 eV
     psi = 0.058*[# 169]+0.058*[# 182]+0.058*[# 195]+0.058*[# 208]+0.056*[#  65]+
          +0.056*[#  78]+0.056*[#  91]+0.056*[# 104]+0.030*[# 114]+0.030*[# 115]+
          +0.030*[# 127]+0.030*[# 128]+0.030*[# 140]+0.030*[# 141]+0.030*[# 153]+
          +0.030*[# 154]+0.020*[# 218]+0.020*[# 219]+0.020*[# 231]+0.019*[# 232]+
          +0.019*[# 244]+0.020*[# 245]+0.019*[# 257]+0.019*[# 258]+0.018*[#  10]+
          +0.018*[#  11]+0.018*[#  23]+0.018*[#  24]+0.018*[#  36]+0.018*[#  37]+
          +0.018*[#  49]+0.018*[#  50]+
    |psi|^2 = 0.999
     e =     1.71251 eV
     psi = 0.058*[# 169]+0.058*[# 182]+0.058*[# 195]+0.058*[# 208]+0.056*[#  65]+
          +0.056*[#  78]+0.056*[#  91]+0.056*[# 104]+0.030*[# 114]+0.030*[# 115]+
          +0.030*[# 127]+0.030*[# 128]+0.030*[# 140]+0.030*[# 141]+0.030*[# 153]+
          +0.030*[# 154]+0.020*[# 218]+0.020*[# 219]+0.020*[# 231]+0.019*[# 232]+
          +0.019*[# 244]+0.020*[# 245]+0.019*[# 257]+0.019*[# 258]+0.018*[#  10]+
          +0.018*[#  11]+0.018*[#  23]+0.018*[#  24]+0.018*[#  36]+0.018*[#  37]+
          +0.018*[#  49]+0.018*[#  50]+
    |psi|^2 = 0.999
     e =     1.72356 eV
     psi = 0.072*[# 114]+0.072*[# 115]+0.072*[# 127]+0.072*[# 128]+0.072*[# 140]+
          +0.072*[# 141]+0.072*[# 153]+0.072*[# 154]+0.015*[# 218]+0.015*[# 219]+
          +0.015*[# 231]+0.015*[# 232]+0.015*[# 244]+0.015*[# 245]+0.015*[# 257]+
          +0.015*[# 258]+0.015*[#  10]+0.015*[#  11]+0.015*[#  23]+0.015*[#  24]+
          +0.015*[#  36]+0.015*[#  37]+0.015*[#  49]+0.015*[#  50]+0.005*[#  59]+
          +0.005*[#  60]+0.005*[#  62]+0.005*[#  63]+0.005*[#  72]+0.005*[#  73]+
          +0.005*[#  75]+0.005*[#  76]+0.005*[#  85]+0.005*[#  86]+0.005*[#  88]+
          +0.005*[#  89]+0.005*[#  98]+0.005*[#  99]+0.005*[# 101]+0.005*[# 102]+
          +0.005*[# 163]+0.005*[# 164]+0.005*[# 176]+0.005*[# 177]+0.005*[# 189]+
          +0.005*[# 190]+0.005*[# 202]+0.005*[# 203]+0.005*[# 166]+0.005*[# 167]+
          +0.005*[# 179]+0.005*[# 180]+0.005*[# 192]+0.005*[# 193]+0.005*[# 205]+
          +0.005*[# 206]+
    |psi|^2 = 0.999
     e =     1.72356 eV
     psi = 0.072*[# 114]+0.072*[# 115]+0.072*[# 127]+0.072*[# 128]+0.072*[# 140]+
          +0.072*[# 141]+0.072*[# 153]+0.072*[# 154]+0.015*[# 218]+0.015*[# 219]+
          +0.015*[# 231]+0.015*[# 232]+0.015*[# 244]+0.015*[# 245]+0.015*[# 257]+
          +0.015*[# 258]+0.015*[#  10]+0.015*[#  11]+0.015*[#  23]+0.015*[#  24]+
          +0.015*[#  36]+0.015*[#  37]+0.015*[#  49]+0.015*[#  50]+0.005*[#  59]+
          +0.005*[#  60]+0.005*[#  62]+0.005*[#  63]+0.005*[#  72]+0.005*[#  73]+
          +0.005*[#  75]+0.005*[#  76]+0.005*[#  85]+0.005*[#  86]+0.005*[#  88]+
          +0.005*[#  89]+0.005*[#  98]+0.005*[#  99]+0.005*[# 101]+0.005*[# 102]+
          +0.005*[# 163]+0.005*[# 164]+0.005*[# 176]+0.005*[# 177]+0.005*[# 189]+
          +0.005*[# 190]+0.005*[# 202]+0.005*[# 203]+0.005*[# 166]+0.005*[# 167]+
          +0.005*[# 179]+0.005*[# 180]+0.005*[# 192]+0.005*[# 193]+0.005*[# 205]+
          +0.005*[# 206]+
    |psi|^2 = 0.999
     e =     1.77791 eV
     psi = 0.088*[# 116]+0.088*[# 129]+0.088*[# 142]+0.088*[# 155]+0.084*[#  12]+
          +0.084*[#  25]+0.084*[#  38]+0.084*[#  51]+0.074*[# 220]+0.074*[# 233]+
          +0.074*[# 246]+0.074*[# 259]+0.002*[#  64]+0.002*[#  77]+0.002*[#  90]+
          +0.002*[# 103]+0.001*[# 168]+0.001*[# 181]+0.001*[# 194]+0.001*[# 207]+
    |psi|^2 = 0.997
     e =     1.82292 eV
     psi = 0.140*[# 130]+0.140*[# 143]+0.074*[# 234]+0.074*[# 247]+0.072*[#  26]+
          +0.072*[#  39]+0.027*[#  62]+0.027*[#  63]+0.027*[#  75]+0.027*[#  76]+
          +0.027*[#  88]+0.027*[#  89]+0.027*[# 101]+0.027*[# 102]+0.027*[# 166]+
          +0.027*[# 167]+0.027*[# 179]+0.027*[# 180]+0.027*[# 192]+0.027*[# 193]+
          +0.027*[# 205]+0.027*[# 206]+
    |psi|^2 = 0.999
     e =     1.82292 eV
     psi = 0.140*[# 117]+0.140*[# 156]+0.074*[# 221]+0.074*[# 260]+0.072*[#  13]+
          +0.072*[#  52]+0.027*[#  62]+0.027*[#  63]+0.027*[#  75]+0.027*[#  76]+
          +0.027*[#  88]+0.027*[#  89]+0.027*[# 101]+0.027*[# 102]+0.027*[# 166]+
          +0.027*[# 167]+0.027*[# 179]+0.027*[# 180]+0.027*[# 192]+0.027*[# 193]+
          +0.027*[# 205]+0.027*[# 206]+
    |psi|^2 = 0.999
     e =     1.87673 eV
     psi = 0.154*[# 113]+0.154*[# 152]+0.124*[#   9]+0.124*[#  48]+0.117*[# 217]+
          +0.117*[# 256]+0.039*[# 129]+0.039*[# 142]+0.032*[#  25]+0.032*[#  38]+
          +0.027*[# 233]+0.027*[# 246]+
    |psi|^2 = 0.997
     e =     1.87674 eV
     psi = 0.154*[# 126]+0.154*[# 139]+0.124*[#  22]+0.124*[#  35]+0.117*[# 230]+
          +0.117*[# 243]+0.039*[# 116]+0.039*[# 155]+0.032*[#  12]+0.032*[#  51]+
          +0.027*[# 220]+0.027*[# 259]+
    |psi|^2 = 0.997
     e =     1.97126 eV
     psi = 0.073*[# 165]+0.073*[# 178]+0.073*[# 191]+0.073*[# 204]+0.071*[#  61]+
          +0.071*[#  74]+0.071*[#  87]+0.071*[# 100]+0.015*[# 218]+0.015*[# 219]+
          +0.015*[# 231]+0.015*[# 232]+0.015*[# 244]+0.015*[# 245]+0.015*[# 257]+
          +0.015*[# 258]+0.013*[#  10]+0.013*[#  11]+0.013*[#  23]+0.013*[#  24]+
          +0.013*[#  36]+0.013*[#  37]+0.013*[#  49]+0.013*[#  50]+0.009*[# 111]+
          +0.009*[# 112]+0.009*[# 124]+0.009*[# 125]+0.009*[# 137]+0.009*[# 138]+
          +0.009*[# 150]+0.009*[# 151]+0.005*[# 215]+0.005*[# 216]+0.005*[# 228]+
          +0.005*[# 229]+0.005*[# 241]+0.005*[# 242]+0.005*[# 254]+0.005*[# 255]+
          +0.004*[#   7]+0.004*[#   8]+0.004*[#  20]+0.004*[#  21]+0.004*[#  33]+
          +0.004*[#  34]+0.004*[#  46]+0.004*[#  47]+0.002*[# 158]+0.002*[# 171]+
          +0.002*[# 184]+0.002*[# 197]+0.002*[#  54]+0.002*[#  67]+0.002*[#  80]+
          +0.002*[#  93]+0.002*[#  58]+0.002*[#  71]+0.002*[#  84]+0.002*[#  97]+
          +0.002*[# 162]+0.002*[# 175]+0.002*[# 188]+0.002*[# 201]+
    |psi|^2 = 0.997
     e =     1.97126 eV
     psi = 0.073*[# 165]+0.073*[# 178]+0.073*[# 191]+0.073*[# 204]+0.071*[#  61]+
          +0.071*[#  74]+0.071*[#  87]+0.071*[# 100]+0.015*[# 218]+0.015*[# 219]+
          +0.015*[# 231]+0.015*[# 232]+0.015*[# 244]+0.015*[# 245]+0.015*[# 257]+
          +0.015*[# 258]+0.013*[#  10]+0.013*[#  11]+0.013*[#  23]+0.013*[#  24]+
          +0.013*[#  36]+0.013*[#  37]+0.013*[#  49]+0.013*[#  50]+0.009*[# 111]+
          +0.009*[# 112]+0.009*[# 124]+0.009*[# 125]+0.009*[# 137]+0.009*[# 138]+
          +0.009*[# 150]+0.009*[# 151]+0.005*[# 215]+0.005*[# 216]+0.005*[# 228]+
          +0.005*[# 229]+0.005*[# 241]+0.005*[# 242]+0.005*[# 254]+0.005*[# 255]+
          +0.004*[#   7]+0.004*[#   8]+0.004*[#  20]+0.004*[#  21]+0.004*[#  33]+
          +0.004*[#  34]+0.004*[#  46]+0.004*[#  47]+0.002*[# 158]+0.002*[# 171]+
          +0.002*[# 184]+0.002*[# 197]+0.002*[#  54]+0.002*[#  67]+0.002*[#  80]+
          +0.002*[#  93]+0.002*[#  58]+0.002*[#  71]+0.002*[#  84]+0.002*[#  97]+
          +0.002*[# 162]+0.002*[# 175]+0.002*[# 188]+0.002*[# 201]+
    |psi|^2 = 0.997
     e =     2.16409 eV
     psi = 0.054*[#  65]+0.054*[#  78]+0.054*[#  91]+0.054*[# 104]+0.052*[# 169]+
          +0.052*[# 182]+0.052*[# 195]+0.052*[# 208]+0.036*[#  10]+0.036*[#  11]+
          +0.036*[#  23]+0.036*[#  24]+0.036*[#  36]+0.036*[#  37]+0.036*[#  49]+
          +0.036*[#  50]+0.035*[# 218]+0.035*[# 219]+0.035*[# 231]+0.035*[# 232]+
          +0.035*[# 244]+0.035*[# 245]+0.035*[# 257]+0.035*[# 258]+
    |psi|^2 = 0.999
     e =     2.16409 eV
     psi = 0.054*[#  65]+0.054*[#  78]+0.054*[#  91]+0.054*[# 104]+0.052*[# 169]+
          +0.052*[# 182]+0.052*[# 195]+0.052*[# 208]+0.036*[#  10]+0.036*[#  11]+
          +0.036*[#  23]+0.036*[#  24]+0.036*[#  36]+0.036*[#  37]+0.036*[#  49]+
          +0.036*[#  50]+0.035*[# 218]+0.035*[# 219]+0.035*[# 231]+0.035*[# 232]+
          +0.035*[# 244]+0.035*[# 245]+0.035*[# 257]+0.035*[# 258]+
    |psi|^2 = 0.999
     e =     2.25051 eV
     psi = 0.207*[# 217]+0.207*[# 256]+0.207*[#   9]+0.207*[#  48]+0.023*[# 110]+
          +0.023*[# 149]+0.007*[# 210]+0.007*[# 249]+0.007*[#   2]+0.007*[#  41]+
          +0.005*[#  59]+0.005*[#  60]+0.005*[#  72]+0.005*[#  73]+0.005*[#  85]+
          +0.005*[#  86]+0.005*[#  98]+0.005*[#  99]+0.005*[# 163]+0.005*[# 164]+
          +0.005*[# 176]+0.005*[# 177]+0.005*[# 189]+0.005*[# 190]+0.005*[# 202]+
          +0.005*[# 203]+
    |psi|^2 = 0.999
     e =     2.25052 eV
     psi = 0.207*[# 230]+0.207*[# 243]+0.207*[#  22]+0.207*[#  35]+0.023*[# 123]+
          +0.023*[# 136]+0.007*[# 223]+0.007*[# 236]+0.007*[#  15]+0.007*[#  28]+
          +0.005*[#  59]+0.005*[#  60]+0.005*[#  72]+0.005*[#  73]+0.005*[#  85]+
          +0.005*[#  86]+0.005*[#  98]+0.005*[#  99]+0.005*[# 163]+0.005*[# 164]+
          +0.005*[# 176]+0.005*[# 177]+0.005*[# 189]+0.005*[# 190]+0.005*[# 202]+
          +0.005*[# 203]+
    |psi|^2 = 0.999
     e =     2.27619 eV
     psi = 0.183*[#  13]+0.183*[#  52]+0.183*[# 221]+0.183*[# 260]+0.017*[# 166]+
          +0.017*[# 167]+0.017*[# 179]+0.017*[# 180]+0.017*[# 192]+0.017*[# 193]+
          +0.017*[# 205]+0.017*[# 206]+0.016*[#  62]+0.016*[#  63]+0.016*[#  75]+
          +0.016*[#  76]+0.016*[#  88]+0.016*[#  89]+0.016*[# 101]+0.016*[# 102]+
    |psi|^2 = 0.999
     e =     2.27619 eV
     psi = 0.183*[#  26]+0.183*[#  39]+0.183*[# 234]+0.183*[# 247]+0.017*[# 166]+
          +0.017*[# 167]+0.017*[# 179]+0.017*[# 180]+0.017*[# 192]+0.017*[# 193]+
          +0.017*[# 205]+0.017*[# 206]+0.016*[#  62]+0.016*[#  63]+0.016*[#  75]+
          +0.016*[#  76]+0.016*[#  88]+0.016*[#  89]+0.016*[# 101]+0.016*[# 102]+
    |psi|^2 = 0.999
     e =     2.45749 eV
     psi = 0.047*[#  10]+0.047*[#  11]+0.047*[#  23]+0.047*[#  24]+0.047*[#  36]+
          +0.047*[#  37]+0.047*[#  49]+0.047*[#  50]+0.038*[# 218]+0.038*[# 219]+
          +0.038*[# 231]+0.038*[# 232]+0.038*[# 244]+0.038*[# 245]+0.038*[# 257]+
          +0.038*[# 258]+0.026*[# 114]+0.026*[# 115]+0.026*[# 127]+0.026*[# 128]+
          +0.026*[# 140]+0.026*[# 141]+0.026*[# 153]+0.026*[# 154]+0.006*[#  64]+
          +0.006*[#  77]+0.006*[#  90]+0.006*[# 103]+0.004*[# 168]+0.004*[# 181]+
          +0.004*[# 194]+0.004*[# 207]+0.004*[#   7]+0.004*[#   8]+0.004*[#  20]+
          +0.004*[#  21]+0.004*[#  33]+0.004*[#  34]+0.004*[#  46]+0.004*[#  47]+
          +0.003*[# 215]+0.003*[# 216]+0.003*[# 228]+0.003*[# 229]+0.003*[# 241]+
          +0.003*[# 242]+0.003*[# 254]+0.003*[# 255]+
    |psi|^2 = 0.999
     e =     2.45749 eV
     psi = 0.047*[#  10]+0.047*[#  11]+0.047*[#  23]+0.047*[#  24]+0.047*[#  36]+
          +0.047*[#  37]+0.047*[#  49]+0.047*[#  50]+0.038*[# 218]+0.038*[# 219]+
          +0.038*[# 231]+0.038*[# 232]+0.038*[# 244]+0.038*[# 245]+0.038*[# 257]+
          +0.038*[# 258]+0.026*[# 114]+0.026*[# 115]+0.026*[# 127]+0.026*[# 128]+
          +0.026*[# 140]+0.026*[# 141]+0.026*[# 153]+0.026*[# 154]+0.006*[#  64]+
          +0.006*[#  77]+0.006*[#  90]+0.006*[# 103]+0.004*[# 168]+0.004*[# 181]+
          +0.004*[# 194]+0.004*[# 207]+0.004*[#   7]+0.004*[#   8]+0.004*[#  20]+
          +0.004*[#  21]+0.004*[#  33]+0.004*[#  34]+0.004*[#  46]+0.004*[#  47]+
          +0.003*[# 215]+0.003*[# 216]+0.003*[# 228]+0.003*[# 229]+0.003*[# 241]+
          +0.003*[# 242]+0.003*[# 254]+0.003*[# 255]+
    |psi|^2 = 0.999
     e =     2.52419 eV
[...]
          +0.002*[# 218]+0.002*[# 219]+0.002*[# 169]+0.002*[# 182]+0.002*[# 195]+
          +0.002*[# 208]+0.002*[# 210]+0.002*[# 229]+0.002*[# 241]+0.001*[#   2]+
          +0.001*[#   6]+0.001*[# 110]+0.001*[# 214]+0.001*[# 113]+0.001*[# 232]+
          +0.001*[# 244]+0.001*[#  23]+0.001*[#  37]+
    |psi|^2 = 0.998
     e =     6.95267 eV
     psi = 0.077*[#  61]+0.077*[#  74]+0.077*[#  87]+0.077*[# 100]+0.076*[# 165]+
          +0.076*[# 178]+0.076*[# 191]+0.076*[# 204]+0.017*[# 127]+0.017*[# 141]+
          +0.017*[# 114]+0.017*[# 115]+0.017*[# 153]+0.017*[# 154]+0.016*[# 128]+
          +0.016*[# 140]+0.015*[# 169]+0.015*[# 182]+0.015*[# 195]+0.015*[# 208]+
          +0.012*[#  65]+0.012*[#  78]+0.012*[#  91]+0.012*[# 104]+0.005*[#  13]+
          +0.005*[#  26]+0.005*[#  39]+0.005*[#  52]+0.005*[# 256]+0.005*[# 230]+
          +0.005*[# 243]+0.004*[# 217]+0.004*[# 221]+0.004*[# 234]+0.004*[# 247]+
          +0.004*[# 260]+0.004*[#  48]+0.003*[#  22]+0.003*[#  35]+0.003*[#   9]+
          +0.003*[# 231]+0.003*[# 245]+0.003*[# 218]+0.003*[# 219]+0.003*[# 257]+
          +0.003*[# 258]+0.003*[# 232]+0.003*[# 244]+0.002*[#  23]+0.002*[#  37]+
          +0.002*[#  10]+0.002*[#  11]+0.002*[#  49]+0.002*[#  50]+0.002*[#  24]+
          +0.002*[#  36]+0.001*[#   6]+0.001*[#  19]+0.001*[#  32]+0.001*[#  45]+
          +0.001*[# 214]+0.001*[# 227]+0.001*[# 240]+0.001*[# 253]+0.001*[# 242]+
    |psi|^2 = 0.999
     e =     6.95275 eV
     psi = 0.077*[#  61]+0.077*[#  74]+0.077*[#  87]+0.077*[# 100]+0.076*[# 165]+
          +0.076*[# 178]+0.076*[# 191]+0.076*[# 204]+0.033*[# 114]+0.033*[# 115]+
          +0.033*[# 153]+0.033*[# 154]+0.015*[# 169]+0.015*[# 182]+0.015*[# 195]+
          +0.015*[# 208]+0.012*[#  65]+0.012*[#  78]+0.012*[#  91]+0.012*[# 104]+
          +0.010*[#  26]+0.010*[#  39]+0.009*[# 230]+0.009*[# 243]+0.009*[# 234]+
          +0.009*[# 247]+0.007*[#  22]+0.007*[#  35]+0.006*[# 218]+0.006*[# 219]+
          +0.006*[# 257]+0.006*[# 258]+0.004*[#  10]+0.004*[#  11]+0.004*[#  49]+
          +0.004*[#  50]+0.002*[#  19]+0.002*[#  32]+0.002*[# 227]+0.002*[# 240]+
          +0.002*[# 215]+0.002*[# 216]+0.002*[# 254]+0.002*[# 255]+0.002*[#   7]+
          +0.002*[#   8]+0.002*[#  46]+0.002*[#  47]+
    |psi|^2 = 0.999
     e =     6.95275 eV
     psi = 0.077*[#  61]+0.077*[#  74]+0.077*[#  87]+0.077*[# 100]+0.076*[# 165]+
          +0.076*[# 178]+0.076*[# 191]+0.076*[# 204]+0.033*[# 127]+0.033*[# 128]+
          +0.033*[# 140]+0.033*[# 141]+0.015*[# 169]+0.015*[# 182]+0.015*[# 195]+
          +0.015*[# 208]+0.012*[#  65]+0.012*[#  78]+0.012*[#  91]+0.012*[# 104]+
          +0.010*[#  13]+0.010*[#  52]+0.009*[# 217]+0.009*[# 256]+0.009*[# 221]+
          +0.009*[# 260]+0.007*[#   9]+0.007*[#  48]+0.006*[# 231]+0.006*[# 232]+
          +0.006*[# 244]+0.006*[# 245]+0.004*[#  23]+0.004*[#  24]+0.004*[#  36]+
          +0.004*[#  37]+0.002*[#   6]+0.002*[#  45]+0.002*[# 214]+0.002*[# 253]+
          +0.002*[# 228]+0.002*[# 229]+0.002*[# 241]+0.002*[# 242]+0.002*[#  20]+
          +0.002*[#  21]+0.002*[#  33]+0.002*[#  34]+
    |psi|^2 = 0.999
     e =     6.95283 eV
     psi = 0.077*[#  61]+0.077*[#  74]+0.077*[#  87]+0.077*[# 100]+0.076*[# 165]+
          +0.076*[# 178]+0.076*[# 191]+0.076*[# 204]+0.017*[# 128]+0.017*[# 140]+
          +0.017*[# 114]+0.017*[# 115]+0.017*[# 153]+0.017*[# 154]+0.016*[# 127]+
          +0.016*[# 141]+0.015*[# 169]+0.015*[# 182]+0.015*[# 195]+0.015*[# 208]+
          +0.012*[#  65]+0.012*[#  78]+0.012*[#  91]+0.012*[# 104]+0.005*[#  52]+
          +0.005*[#  26]+0.005*[#  39]+0.005*[#  13]+0.005*[# 217]+0.005*[# 230]+
          +0.005*[# 243]+0.004*[# 256]+0.004*[# 260]+0.004*[# 234]+0.004*[# 247]+
          +0.004*[# 221]+0.004*[#   9]+0.003*[#  22]+0.003*[#  35]+0.003*[#  48]+
          +0.003*[# 232]+0.003*[# 244]+0.003*[# 218]+0.003*[# 219]+0.003*[# 257]+
          +0.003*[# 258]+0.003*[# 231]+0.003*[# 245]+0.002*[#  24]+0.002*[#  36]+
          +0.002*[#  10]+0.002*[#  11]+0.002*[#  23]+0.002*[#  37]+0.002*[#  49]+
          +0.002*[#  50]+0.001*[#   6]+0.001*[#  19]+0.001*[#  32]+0.001*[# 214]+
          +0.001*[#  45]+0.001*[# 227]+0.001*[# 240]+0.001*[# 241]+0.001*[# 253]+
    |psi|^2 = 0.999
     e =     7.22841 eV
     psi = 0.032*[# 114]+0.032*[# 115]+0.032*[# 153]+0.032*[# 154]+0.030*[# 127]+
          +0.030*[# 141]+0.028*[# 166]+0.028*[# 167]+0.028*[# 179]+0.028*[# 180]+
          +0.028*[# 192]+0.028*[# 193]+0.028*[# 205]+0.028*[# 206]+0.027*[#  62]+
          +0.027*[#  63]+0.027*[#  75]+0.027*[#  76]+0.027*[#  88]+0.027*[#  89]+
          +0.027*[# 101]+0.027*[# 102]+0.018*[# 233]+0.018*[# 246]+0.017*[# 128]+
          +0.017*[# 140]+0.017*[# 259]+0.016*[# 218]+0.016*[# 219]+0.016*[# 257]+
          +0.016*[# 258]+0.015*[#  25]+0.015*[#  38]+0.015*[# 231]+0.015*[# 245]+
          +0.014*[#  10]+0.014*[#  11]+0.014*[#  49]+0.014*[#  50]+0.014*[#  51]+
          +0.013*[#  23]+0.013*[#  37]+0.010*[# 220]+0.009*[# 232]+0.009*[# 244]+
          +0.008*[#  12]+0.008*[#  24]+0.008*[#  36]+
    |psi|^2 = 0.999
     e =     7.22842 eV
     psi = 0.055*[# 114]+0.055*[# 115]+0.055*[# 153]+0.055*[# 154]+0.032*[# 233]+
          +0.032*[# 246]+0.028*[# 166]+0.028*[# 167]+0.028*[# 179]+0.028*[# 180]+
          +0.028*[# 192]+0.028*[# 193]+0.028*[# 205]+0.028*[# 206]+0.027*[# 218]+
          +0.027*[# 219]+0.027*[# 257]+0.027*[# 258]+0.027*[#  62]+0.027*[#  63]+
          +0.027*[#  75]+0.027*[#  76]+0.027*[#  88]+0.027*[#  89]+0.027*[# 101]+
          +0.027*[# 102]+0.027*[#  25]+0.027*[#  38]+0.025*[#  10]+0.025*[#  11]+
          +0.025*[#  49]+0.025*[#  50]+0.001*[#   7]+0.001*[#   8]+0.001*[#  46]+
          +0.001*[#  47]+0.001*[# 215]+0.001*[# 216]+0.001*[# 254]+0.001*[# 255]+
    |psi|^2 = 0.999
     e =     7.22842 eV
     psi = 0.060*[# 127]+0.060*[# 141]+0.048*[# 128]+0.048*[# 140]+0.034*[# 259]+
          +0.030*[# 231]+0.030*[# 245]+0.029*[#  51]+0.028*[# 166]+0.028*[# 167]+
          +0.028*[# 179]+0.028*[# 180]+0.028*[# 192]+0.028*[# 193]+0.028*[# 205]+
          +0.028*[# 206]+0.028*[# 220]+0.027*[#  23]+0.027*[#  37]+0.027*[#  62]+
          +0.027*[#  63]+0.027*[#  75]+0.027*[#  76]+0.027*[#  88]+0.027*[#  89]+
          +0.027*[# 101]+0.027*[# 102]+0.024*[# 232]+0.024*[# 244]+0.023*[#  12]+
          +0.022*[#  24]+0.022*[#  36]+0.001*[#  20]+0.001*[#  34]+0.001*[# 114]+
          +0.001*[# 115]+0.001*[# 153]+0.001*[# 154]+0.001*[# 228]+0.001*[# 242]+
          +0.001*[#  21]+0.001*[#  33]+0.001*[# 229]+0.001*[# 241]+
    |psi|^2 = 0.999
     e =     7.22842 eV
     psi = 0.045*[# 128]+0.045*[# 140]+0.028*[# 166]+0.028*[# 167]+0.028*[# 179]+
          +0.028*[# 180]+0.028*[# 192]+0.028*[# 193]+0.028*[# 205]+0.028*[# 206]+
          +0.027*[#  62]+0.027*[#  63]+0.027*[#  75]+0.027*[#  76]+0.027*[#  88]+
          +0.027*[#  89]+0.027*[# 101]+0.027*[# 102]+0.026*[# 220]+0.022*[# 114]+
          +0.022*[# 115]+0.022*[# 153]+0.022*[# 154]+0.022*[# 232]+0.022*[# 244]+
          +0.021*[#  12]+0.021*[# 127]+0.021*[# 141]+0.020*[#  24]+0.020*[#  36]+
          +0.013*[# 233]+0.013*[# 246]+0.012*[# 259]+0.011*[# 218]+0.011*[# 219]+
          +0.011*[# 257]+0.011*[# 258]+0.011*[#  25]+0.011*[#  38]+0.011*[# 231]+
          +0.011*[# 245]+0.010*[#  51]+0.010*[#  10]+0.010*[#  11]+0.010*[#  49]+
          +0.010*[#  50]+0.010*[#  23]+0.010*[#  37]+
    |psi|^2 = 0.999
     e =     7.85383 eV
     psi = 0.051*[# 117]+0.031*[# 130]+0.031*[# 143]+0.024*[#  45]+0.023*[# 221]+
          +0.022*[# 253]+0.022*[#  13]+0.019*[# 166]+0.019*[# 167]+0.019*[# 179]+
          +0.019*[# 180]+0.019*[# 192]+0.019*[# 193]+0.019*[# 205]+0.019*[# 206]+
          +0.018*[#  62]+0.018*[#  63]+0.018*[#  75]+0.018*[#  76]+0.018*[#  88]+
          +0.018*[#  89]+0.018*[# 101]+0.018*[# 102]+0.018*[# 156]+0.015*[#  19]+
          +0.015*[#  32]+0.014*[# 234]+0.014*[# 247]+0.013*[# 227]+0.013*[# 240]+
          +0.013*[#  26]+0.013*[#  39]+0.012*[#  23]+0.012*[#  37]+0.012*[# 231]+
          +0.012*[# 245]+0.009*[#   6]+0.008*[# 260]+0.008*[# 214]+0.008*[#  52]+
          +0.007*[#  10]+0.007*[#  11]+0.007*[#  41]+0.007*[#  49]+0.007*[#  50]+
          +0.007*[#  20]+0.007*[#  34]+0.007*[# 218]+0.007*[# 219]+0.007*[# 249]+
          +0.007*[# 257]+0.007*[# 258]+0.007*[# 228]+0.007*[# 242]+0.005*[#  58]+
          +0.005*[#  71]+0.005*[#  84]+0.005*[#  97]+0.005*[# 162]+0.005*[# 175]+
          +0.005*[# 188]+0.005*[# 201]+0.004*[#  15]+0.004*[#   7]+0.004*[#  24]+
          +0.004*[#  28]+0.004*[#   8]+0.004*[#  36]+0.004*[#  46]+0.004*[#  47]+
          +0.004*[# 223]+0.004*[# 232]+0.004*[# 236]+0.004*[# 244]+0.004*[# 215]+
          +0.004*[# 216]+0.004*[# 254]+0.004*[# 255]+0.004*[#  65]+0.004*[#  78]+
          +0.004*[#  91]+0.004*[# 104]+0.004*[# 124]+0.004*[# 138]+0.004*[# 169]+
          +0.004*[# 182]+0.004*[# 195]+0.004*[# 208]+0.003*[#   2]+0.002*[#  21]+
          +0.002*[#  33]+0.002*[# 210]+0.002*[# 111]+0.002*[# 112]+0.002*[# 150]+
          +0.002*[# 151]+0.002*[# 229]+0.002*[# 241]+0.001*[# 125]+0.001*[# 137]+
          +0.001*[# 145]+
    |psi|^2 = 0.998
     e =     7.85385 eV
     psi = 0.066*[# 130]+0.066*[# 143]+0.031*[#  19]+0.031*[#  32]+0.029*[# 234]+
          +0.029*[# 247]+0.028*[# 227]+0.028*[# 240]+0.028*[#  26]+0.028*[#  39]+
          +0.019*[# 166]+0.019*[# 167]+0.019*[# 179]+0.019*[# 180]+0.019*[# 192]+
          +0.019*[# 193]+0.019*[# 205]+0.019*[# 206]+0.018*[#  62]+0.018*[#  63]+
          +0.018*[#  75]+0.018*[#  76]+0.018*[#  88]+0.018*[#  89]+0.018*[# 101]+
          +0.018*[# 102]+0.015*[#  10]+0.015*[#  11]+0.015*[#  49]+0.015*[#  50]+
          +0.015*[# 218]+0.015*[# 219]+0.015*[# 257]+0.015*[# 258]+0.009*[#  15]+
          +0.009*[#  28]+0.009*[#   7]+0.009*[#   8]+0.009*[#  46]+0.009*[#  47]+
          +0.009*[# 223]+0.009*[# 236]+0.008*[# 215]+0.008*[# 216]+0.008*[# 254]+
          +0.008*[# 255]+0.005*[#  58]+0.005*[#  71]+0.005*[#  84]+0.005*[#  97]+
          +0.005*[# 162]+0.005*[# 175]+0.005*[# 188]+0.005*[# 201]+0.005*[# 111]+
          +0.005*[# 112]+0.005*[# 150]+0.005*[# 151]+0.004*[#  65]+0.004*[#  78]+
          +0.004*[#  91]+0.004*[# 104]+0.004*[# 169]+0.004*[# 182]+0.004*[# 195]+
          +0.004*[# 208]+0.001*[# 119]+0.001*[# 132]+
    |psi|^2 = 0.998
     e =     7.85385 eV
     psi = 0.062*[# 117]+0.061*[# 156]+0.029*[#  45]+0.029*[#   6]+0.028*[# 221]+
          +0.027*[# 260]+0.027*[# 253]+0.026*[# 214]+0.026*[#  13]+0.026*[#  52]+
          +0.019*[# 166]+0.019*[# 167]+0.019*[# 179]+0.019*[# 180]+0.019*[# 192]+
          +0.019*[# 193]+0.019*[# 205]+0.019*[# 206]+0.018*[#  62]+0.018*[#  63]+
          +0.018*[#  75]+0.018*[#  76]+0.018*[#  88]+0.018*[#  89]+0.018*[# 101]+
          +0.018*[# 102]+0.014*[#  23]+0.014*[#  37]+0.014*[#  24]+0.014*[#  36]+
          +0.014*[# 231]+0.014*[# 245]+0.014*[# 232]+0.014*[# 244]+0.009*[#   2]+
          +0.009*[#  41]+0.008*[#  20]+0.008*[#  21]+0.008*[#  33]+0.008*[#  34]+
          +0.008*[# 210]+0.008*[# 249]+0.008*[# 228]+0.008*[# 229]+0.008*[# 241]+
          +0.008*[# 242]+0.005*[#  58]+0.005*[#  71]+0.005*[#  84]+0.005*[#  97]+
          +0.005*[# 162]+0.005*[# 175]+0.005*[# 188]+0.005*[# 201]+0.005*[# 124]+
          +0.005*[# 125]+0.005*[# 137]+0.005*[# 138]+0.004*[# 130]+0.004*[# 143]+
          +0.004*[#  65]+0.004*[#  78]+0.004*[#  91]+0.004*[# 104]+0.004*[# 169]+
          +0.004*[# 182]+0.004*[# 195]+0.004*[# 208]+0.002*[#  19]+0.002*[#  32]+
          +0.002*[#  26]+0.002*[#  39]+0.002*[# 227]+0.002*[# 234]+0.002*[# 240]+
          +0.002*[# 247]+0.001*[# 106]+0.001*[# 145]+
    |psi|^2 = 0.998
     e =     7.85386 eV
     psi = 0.052*[# 156]+0.031*[# 130]+0.031*[# 143]+0.025*[#   6]+0.023*[# 260]+
          +0.022*[# 214]+0.022*[#  52]+0.019*[# 166]+0.019*[# 167]+0.019*[# 179]+
          +0.019*[# 180]+0.019*[# 192]+0.019*[# 193]+0.019*[# 205]+0.019*[# 206]+
          +0.018*[#  62]+0.018*[#  63]+0.018*[#  75]+0.018*[#  76]+0.018*[#  88]+
          +0.018*[#  89]+0.018*[# 101]+0.018*[# 102]+0.018*[# 117]+0.014*[#  19]+
          +0.014*[#  32]+0.014*[# 234]+0.014*[# 247]+0.013*[# 227]+0.013*[# 240]+
          +0.013*[#  26]+0.013*[#  39]+0.012*[#  24]+0.012*[#  36]+0.012*[# 232]+
          +0.012*[# 244]+0.009*[#  45]+0.008*[# 221]+0.008*[# 253]+0.008*[#  13]+
          +0.007*[#   2]+0.007*[#  10]+0.007*[#  11]+0.007*[#  21]+0.007*[#  33]+
          +0.007*[#  49]+0.007*[#  50]+0.007*[# 210]+0.007*[# 218]+0.007*[# 219]+
          +0.007*[# 257]+0.007*[# 258]+0.007*[# 229]+0.007*[# 241]+0.005*[#  58]+
          +0.005*[#  71]+0.005*[#  84]+0.005*[#  97]+0.005*[# 162]+0.005*[# 175]+
          +0.005*[# 188]+0.005*[# 201]+0.004*[#  15]+0.004*[#  23]+0.004*[#  28]+
          +0.004*[#  37]+0.004*[#   7]+0.004*[#   8]+0.004*[#  46]+0.004*[#  47]+
          +0.004*[# 223]+0.004*[# 231]+0.004*[# 236]+0.004*[# 245]+0.004*[#  65]+
          +0.004*[#  78]+0.004*[#  91]+0.004*[# 104]+0.004*[# 125]+0.004*[# 137]+
          +0.004*[# 215]+0.004*[# 216]+0.004*[# 254]+0.004*[# 255]+0.004*[# 169]+
          +0.004*[# 182]+0.004*[# 195]+0.004*[# 208]+0.002*[#  20]+0.002*[#  34]+
          +0.003*[#  41]+0.002*[# 249]+0.002*[# 111]+0.002*[# 112]+0.002*[# 150]+
          +0.002*[# 151]+0.002*[# 228]+0.002*[# 242]+0.001*[# 124]+0.001*[# 138]+
          +0.001*[# 106]+
    |psi|^2 = 0.998

Lowdin Charges: 

     Atom #   1: total charge =  15.7963, s =  2.3794, p =  6.8588, d =  6.5581, 
                 spin up      =   9.4573, s =  1.1971, p =  3.4315, d =  4.8287, 
                 spin down    =   6.3390, s =  1.1824, p =  3.4272, d =  1.7294, 
                 polarization =   3.1182, s =  0.0147, p =  0.0043, d =  3.0992, 
     Atom #   2: total charge =  15.7963, s =  2.3794, p =  6.8588, d =  6.5581, 
                 spin up      =   9.4573, s =  1.1971, p =  3.4315, d =  4.8287, 
                 spin down    =   6.3391, s =  1.1824, p =  3.4272, d =  1.7295, 
                 polarization =   3.1182, s =  0.0147, p =  0.0043, d =  3.0992, 
     Atom #   3: total charge =  15.7963, s =  2.3794, p =  6.8588, d =  6.5581, 
                 spin up      =   9.4573, s =  1.1971, p =  3.4315, d =  4.8287, 
                 spin down    =   6.3391, s =  1.1824, p =  3.4272, d =  1.7295, 
                 polarization =   3.1182, s =  0.0147, p =  0.0043, d =  3.0992, 
     Atom #   4: total charge =  15.7963, s =  2.3794, p =  6.8588, d =  6.5581, 
                 spin up      =   9.4573, s =  1.1971, p =  3.4315, d =  4.8287, 
                 spin down    =   6.3391, s =  1.1824, p =  3.4272, d =  1.7295, 
                 polarization =   3.1182, s =  0.0147, p =  0.0043, d =  3.0992, 
     Atom #   5: total charge =  16.1393, s =  2.3081, p =  7.1606, d =  6.6706, 
                 spin up      =   9.2051, s =  1.1407, p =  3.5192, d =  4.5452, 
                 spin down    =   6.9341, s =  1.1673, p =  3.6415, d =  2.1253, 
                 polarization =   2.2710, s = -0.0266, p = -0.1223, d =  2.4199, 
     Atom #   6: total charge =  16.1393, s =  2.3081, p =  7.1606, d =  6.6706, 
                 spin up      =   9.2051, s =  1.1407, p =  3.5192, d =  4.5452, 
                 spin down    =   6.9341, s =  1.1673, p =  3.6415, d =  2.1253, 
                 polarization =   2.2710, s = -0.0266, p = -0.1223, d =  2.4199, 
     Atom #   7: total charge =  16.1393, s =  2.3081, p =  7.1606, d =  6.6706, 
                 spin up      =   9.2051, s =  1.1407, p =  3.5192, d =  4.5452, 
                 spin down    =   6.9341, s =  1.1673, p =  3.6415, d =  2.1253, 
                 polarization =   2.2710, s = -0.0266, p = -0.1223, d =  2.4199, 
     Atom #   8: total charge =  16.1393, s =  2.3081, p =  7.1606, d =  6.6706, 
                 spin up      =   9.2051, s =  1.1407, p =  3.5192, d =  4.5452, 
                 spin down    =   6.9341, s =  1.1673, p =  3.6415, d =  2.1253, 
                 polarization =   2.2710, s = -0.0266, p = -0.1223, d =  2.4199, 
     Atom #   9: total charge =  15.9972, s =  2.2892, p =  7.0801, d =  6.6280, 
                 spin up      =   9.1276, s =  1.1354, p =  3.4821, d =  4.5101, 
                 spin down    =   6.8696, s =  1.1538, p =  3.5980, d =  2.1179, 
                 polarization =   2.2580, s = -0.0184, p = -0.1159, d =  2.3922, 
     Atom #  10: total charge =  15.9972, s =  2.2892, p =  7.0801, d =  6.6280, 
                 spin up      =   9.1276, s =  1.1354, p =  3.4821, d =  4.5101, 
                 spin down    =   6.8696, s =  1.1538, p =  3.5980, d =  2.1179, 
                 polarization =   2.2580, s = -0.0184, p = -0.1159, d =  2.3922, 
     Atom #  11: total charge =  15.9972, s =  2.2892, p =  7.0801, d =  6.6280, 
                 spin up      =   9.1276, s =  1.1354, p =  3.4821, d =  4.5101, 
                 spin down    =   6.8696, s =  1.1538, p =  3.5980, d =  2.1179, 
                 polarization =   2.2580, s = -0.0184, p = -0.1159, d =  2.3922, 
     Atom #  12: total charge =  15.9972, s =  2.2892, p =  7.0801, d =  6.6280, 
                 spin up      =   9.1276, s =  1.1354, p =  3.4821, d =  4.5101, 
                 spin down    =   6.8696, s =  1.1538, p =  3.5980, d =  2.1179, 
                 polarization =   2.2580, s = -0.0184, p = -0.1159, d =  2.3922, 
     Atom #  13: total charge =  16.1400, s =  2.3082, p =  7.1602, d =  6.6716, 
                 spin up      =   9.2044, s =  1.1408, p =  3.5192, d =  4.5444, 
                 spin down    =   6.9357, s =  1.1674, p =  3.6410, d =  2.1272, 
                 polarization =   2.2687, s = -0.0266, p = -0.1219, d =  2.4171, 
     Atom #  14: total charge =  16.1400, s =  2.3082, p =  7.1602, d =  6.6716, 
                 spin up      =   9.2044, s =  1.1408, p =  3.5192, d =  4.5444, 
                 spin down    =   6.9357, s =  1.1674, p =  3.6410, d =  2.1272, 
                 polarization =   2.2687, s = -0.0266, p = -0.1219, d =  2.4171, 
     Atom #  15: total charge =  16.1400, s =  2.3082, p =  7.1602, d =  6.6716, 
                 spin up      =   9.2044, s =  1.1408, p =  3.5192, d =  4.5444, 
                 spin down    =   6.9357, s =  1.1674, p =  3.6410, d =  2.1272, 
                 polarization =   2.2687, s = -0.0266, p = -0.1219, d =  2.4171, 
     Atom #  16: total charge =  16.1400, s =  2.3082, p =  7.1602, d =  6.6716, 
                 spin up      =   9.2044, s =  1.1408, p =  3.5192, d =  4.5444, 
                 spin down    =   6.9357, s =  1.1674, p =  3.6410, d =  2.1272, 
                 polarization =   2.2687, s = -0.0266, p = -0.1219, d =  2.4171, 
     Atom #  17: total charge =  15.7959, s =  2.3784, p =  6.8575, d =  6.5600, 
                 spin up      =   9.4534, s =  1.1964, p =  3.4314, d =  4.8256, 
                 spin down    =   6.3425, s =  1.1819, p =  3.4261, d =  1.7345, 
                 polarization =   3.1110, s =  0.0145, p =  0.0054, d =  3.0911, 
     Atom #  18: total charge =  15.7959, s =  2.3784, p =  6.8575, d =  6.5600, 
                 spin up      =   9.4534, s =  1.1964, p =  3.4314, d =  4.8255, 
                 spin down    =   6.3425, s =  1.1819, p =  3.4261, d =  1.7345, 
                 polarization =   3.1110, s =  0.0145, p =  0.0054, d =  3.0911, 
     Atom #  19: total charge =  15.7959, s =  2.3784, p =  6.8575, d =  6.5600, 
                 spin up      =   9.4534, s =  1.1964, p =  3.4314, d =  4.8255, 
                 spin down    =   6.3425, s =  1.1819, p =  3.4261, d =  1.7345, 
                 polarization =   3.1110, s =  0.0145, p =  0.0054, d =  3.0911, 
     Atom #  20: total charge =  15.7959, s =  2.3784, p =  6.8575, d =  6.5600, 
                 spin up      =   9.4534, s =  1.1964, p =  3.4314, d =  4.8256, 
                 spin down    =   6.3425, s =  1.1819, p =  3.4261, d =  1.7345, 
                 polarization =   3.1110, s =  0.0145, p =  0.0054, d =  3.0911, 
     Spilling Parameter:   0.0016
Application 16703234 resources: utime ~4219s, stime ~112s, Rss ~236080, inblocks ~25008177, outblocks ~18206774
