
     Program PWSCF v.5.0.2 (svn rev. 9656) starts on  5Aug2015 at  3:48:19 

     This program is part of the open-source Quantum ESPRESSO suite
     for quantum simulation of materials; please cite
         "P. Giannozzi et al., J. Phys.:Condens. Matter 21 395502 (2009);
          URL http://www.quantum-espresso.org", 
     in publications or presentations arising from this work. More details at
     http://www.quantum-espresso.org/quote.php

     Parallel version (MPI & OpenMP), running on      48 processor cores
     Number of MPI processes:                48
     Threads/MPI process:                     1
     K-points division:     npool     =       4
     R & G space division:  proc/nbgrp/npool/nimage =      12
     wavefunctions fft division:  fft/group =       2

     Current dimensions of program PWSCF are:
     Max number of different atomic species (ntypx) = 10
     Max number of k-points (npk) =  40000
     Max angular momentum in pseudopotentials (lmaxx) =  3
     Reading input from Fe_100_2x2_scf.in
Warning: card  &CELL ignored
Warning: card    PRESS=0.0 ignored
Warning: card    PRESS_CONV_THR=0.1 ignored
Warning: card  / ignored

     IMPORTANT: XC functional enforced from input :
     Exchange-correlation      = PBE ( 1 4 3 4 0)
     EXX-fraction              =        0.00
     Any further DFT definition will be discarded
     Please, verify this is what you really want

               file Fe.pbe-spn-kjpaw_psl.0.2.1.UPF: wavefunction(s)  3D renormalized

     Subspace diagonalization in iterative solution of the eigenvalue problem:
     scalapack distributed-memory algorithm (size of sub-group:  2*  2 procs)

     Found symmetry operation: I + ( -0.0000  0.5000  0.0000)
     This is a supercell, fractional translations are disabled

   Task Groups are in USE
   groups and procs/group :     2    6
 
     Parallelization info
     --------------------
     sticks:   dense  smooth     PW     G-vecs:    dense   smooth      PW
     Min         608     288     79               124119    40608    5765
     Max         610     289     80               124128    40659    5774
     Sum        7305    3457    949              1489451   487579   69203
 


     bravais-lattice index     =            0
     lattice parameter (alat)  =       1.8897  a.u.
     unit-cell volume          =    3898.2644 (a.u.)^3
     number of atoms/cell      =           20
     number of atomic types    =            1
     number of electrons       =       320.00
     number of Kohn-Sham states=          192
     kinetic-energy cutoff     =      95.0000  Ry
     charge density cutoff     =     800.0000  Ry
     convergence threshold     =      1.0E-08
     mixing beta               =       0.5000
     number of iterations used =            8  local-TF  mixing
     Exchange-correlation      = PBE ( 1 4 3 4 0)
     EXX-fraction              =        0.00
     nstep                     =         1000


     celldm(1)=   1.889727  celldm(2)=   0.000000  celldm(3)=   0.000000
     celldm(4)=   0.000000  celldm(5)=   0.000000  celldm(6)=   0.000000

     crystal axes: (cart. coord. in units of alat)
               a(1) = (   5.665012   0.000000   0.000000 )  
               a(2) = (   0.000000   5.665012   0.000000 )  
               a(3) = (   0.000000   0.000000  18.000000 )  

     reciprocal axes: (cart. coord. in units 2 pi/alat)
               b(1) = (  0.176522 -0.000000  0.000000 )  
               b(2) = (  0.000000  0.176522  0.000000 )  
               b(3) = (  0.000000  0.000000  0.055556 )  


     PseudoPot. # 1 for Fe read from file:
     /work/e05/e05/ablar/QE_PSEUDO/Fe.pbe-spn-kjpaw_psl.0.2.1.UPF
     MD5 check sum: a0a08122d52b112de96d1da1d7dd020f
     Pseudo is Projector augmented-wave + core cor, Zval = 16.0
     Generated using "atomic" code by A. Dal Corso  v.5.0.2 svn rev. 9415
     Shape of augmentation charge: PSQ
     Using radial grid of 1191 points,  6 beta functions with: 
                l(1) =   0
                l(2) =   0
                l(3) =   1
                l(4) =   1
                l(5) =   2
                l(6) =   2
     Q(r) pseudized with 0 coefficients 


     atomic species   valence    mass     pseudopotential
        Fe            16.00    55.85000     Fe( 1.00)

     Starting magnetic structure 
     atomic species   magnetization
        Fe           0.600


     Simplified LDA+U calculation (l_max = 2) with parameters (eV):
     atomic species    L          U    alpha       J0     beta
        Fe             2     0.0000   0.0000   0.0000   0.0000



      8 Sym. Ops. (no inversion) found


                                    s                        frac. trans.

      isym =  1     identity                                     

 cryst.   s( 1) = (     1          0          0      )
                  (     0          1          0      )
                  (     0          0          1      )

 cart.    s( 1) = (  1.0000000  0.0000000  0.0000000 )
                  (  0.0000000  1.0000000  0.0000000 )
                  (  0.0000000  0.0000000  1.0000000 )


      isym =  2     180 deg rotation - cart. axis [0,0,1]        

 cryst.   s( 2) = (    -1          0          0      )
                  (     0         -1          0      )
                  (     0          0          1      )

 cart.    s( 2) = ( -1.0000000 -0.0000000  0.0000000 )
                  (  0.0000000 -1.0000000  0.0000000 )
                  (  0.0000000  0.0000000  1.0000000 )


      isym =  3      90 deg rotation - cart. axis [0,0,-1]       

 cryst.   s( 3) = (     0         -1          0      )
                  (     1          0          0      )
                  (     0          0          1      )

 cart.    s( 3) = ( -0.0000000  1.0000000  0.0000000 )
                  ( -1.0000000  0.0000000  0.0000000 )
                  (  0.0000000  0.0000000  1.0000000 )


      isym =  4      90 deg rotation - cart. axis [0,0,1]        

 cryst.   s( 4) = (     0          1          0      )
                  (    -1          0          0      )
                  (     0          0          1      )

 cart.    s( 4) = (  0.0000000 -1.0000000  0.0000000 )
                  (  1.0000000 -0.0000000  0.0000000 )
                  (  0.0000000  0.0000000  1.0000000 )


      isym =  5     inv. 180 deg rotation - cart. axis [0,1,0]   

 cryst.   s( 5) = (     1          0          0      )
                  (     0         -1          0      )
                  (     0          0          1      )

 cart.    s( 5) = (  1.0000000 -0.0000000  0.0000000 )
                  (  0.0000000 -1.0000000  0.0000000 )
                  (  0.0000000  0.0000000  1.0000000 )


      isym =  6     inv. 180 deg rotation - cart. axis [1,0,0]   

 cryst.   s( 6) = (    -1          0          0      )
                  (     0          1          0      )
                  (     0          0          1      )

 cart.    s( 6) = ( -1.0000000  0.0000000  0.0000000 )
                  (  0.0000000  1.0000000  0.0000000 )
                  (  0.0000000  0.0000000  1.0000000 )


      isym =  7     inv. 180 deg rotation - cart. axis [1,1,0]   

 cryst.   s( 7) = (     0         -1          0      )
                  (    -1          0          0      )
                  (     0          0          1      )

 cart.    s( 7) = ( -0.0000000 -1.0000000  0.0000000 )
                  ( -1.0000000  0.0000000  0.0000000 )
                  (  0.0000000  0.0000000  1.0000000 )


      isym =  8     inv. 180 deg rotation - cart. axis [1,-1,0]  

 cryst.   s( 8) = (     0          1          0      )
                  (     1          0          0      )
                  (     0          0          1      )

 cart.    s( 8) = (  0.0000000  1.0000000  0.0000000 )
                  (  1.0000000 -0.0000000  0.0000000 )
                  (  0.0000000  0.0000000  1.0000000 )


     point group C_4v (4mm) 
     there are  5 classes
     the character table:

       E     2C4   C2    2s_v  2s_d 
A_1    1.00  1.00  1.00  1.00  1.00
A_2    1.00  1.00  1.00 -1.00 -1.00
B_1    1.00 -1.00  1.00  1.00 -1.00
B_2    1.00 -1.00  1.00 -1.00  1.00
E      2.00  0.00 -2.00  0.00  0.00

     the symmetry operations in each class:
     E        1
     C2       2
     2C4      3    4
     2s_v     5    6
     2s_d     7    8

   Cartesian axes

     site n.     atom                  positions (alat units)
         1           Fe  tau(   1) = (   0.0000000   0.0000000  -2.8325049  )
         2           Fe  tau(   2) = (   0.0000000   2.8325049  -2.8325049  )
         3           Fe  tau(   3) = (   2.8325049   0.0000000  -2.8325049  )
         4           Fe  tau(   4) = (   2.8325049   2.8325049  -2.8325049  )
         5           Fe  tau(   5) = (   1.4162524   1.4162524  -1.4162524  )
         6           Fe  tau(   6) = (   1.4162524  -1.4162524  -1.4162524  )
         7           Fe  tau(   7) = (  -1.4162524   1.4162524  -1.4162524  )
         8           Fe  tau(   8) = (  -1.4162524  -1.4162524  -1.4162524  )
         9           Fe  tau(   9) = (   0.0000000   0.0000000   0.0000000  )
        10           Fe  tau(  10) = (   0.0000000   2.8325049   0.0000000  )
        11           Fe  tau(  11) = (   2.8325049   0.0000000   0.0000000  )
        12           Fe  tau(  12) = (   2.8325049   2.8325049   0.0000000  )
        13           Fe  tau(  13) = (   1.4162555   1.4162555   1.4328982  )
        14           Fe  tau(  14) = (   1.4162555  -1.4162555   1.4328982  )
        15           Fe  tau(  15) = (  -1.4162555   1.4162555   1.4328982  )
        16           Fe  tau(  16) = (  -1.4162555  -1.4162555   1.4328982  )
        17           Fe  tau(  17) = (   0.0000000   0.0000000   2.8288737  )
        18           Fe  tau(  18) = (   0.0000000   2.8325049   2.8288713  )
        19           Fe  tau(  19) = (   2.8325049   0.0000000   2.8288713  )
        20           Fe  tau(  20) = (   2.8325049   2.8325049   2.8288980  )

   Crystallographic axes

     site n.     atom                  positions (cryst. coord.)
         1           Fe  tau(   1) = (  0.0000000  0.0000000 -0.1573614  )
         2           Fe  tau(   2) = ( -0.0000000  0.4999998 -0.1573614  )
         3           Fe  tau(   3) = (  0.4999998  0.0000000 -0.1573614  )
         4           Fe  tau(   4) = (  0.4999998  0.4999998 -0.1573614  )
         5           Fe  tau(   5) = (  0.2499999  0.2499999 -0.0786807  )
         6           Fe  tau(   6) = (  0.2499999 -0.2499999 -0.0786807  )
         7           Fe  tau(   7) = ( -0.2499999  0.2499999 -0.0786807  )
         8           Fe  tau(   8) = ( -0.2499999 -0.2499999 -0.0786807  )
         9           Fe  tau(   9) = (  0.0000000  0.0000000  0.0000000  )
        10           Fe  tau(  10) = ( -0.0000000  0.4999998  0.0000000  )
        11           Fe  tau(  11) = (  0.4999998  0.0000000  0.0000000  )
        12           Fe  tau(  12) = (  0.4999998  0.4999998  0.0000000  )
        13           Fe  tau(  13) = (  0.2500004  0.2500004  0.0796055  )
        14           Fe  tau(  14) = (  0.2500004 -0.2500004  0.0796055  )
        15           Fe  tau(  15) = ( -0.2500004  0.2500004  0.0796055  )
        16           Fe  tau(  16) = ( -0.2500004 -0.2500004  0.0796055  )
        17           Fe  tau(  17) = (  0.0000000  0.0000000  0.1571596  )
        18           Fe  tau(  18) = ( -0.0000000  0.4999998  0.1571595  )
        19           Fe  tau(  19) = (  0.4999998  0.0000000  0.1571595  )
        20           Fe  tau(  20) = (  0.4999998  0.4999998  0.1571610  )

     number of k points=    12  Marzari-Vanderbilt smearing, width (Ry)=  0.0400
                       cart. coord. in units 2pi/alat
        k(    1) = (   0.0000000   0.0000000   0.0000000), wk =   0.0625000
        k(    2) = (   0.0000000   0.0441305   0.0000000), wk =   0.2500000
        k(    3) = (   0.0000000  -0.0882611   0.0000000), wk =   0.1250000
        k(    4) = (   0.0441305   0.0441305   0.0000000), wk =   0.2500000
        k(    5) = (   0.0441305  -0.0882611   0.0000000), wk =   0.2500000
        k(    6) = (  -0.0882611  -0.0882611   0.0000000), wk =   0.0625000
        k(    7) = (   0.0000000   0.0000000   0.0000000), wk =   0.0625000
        k(    8) = (   0.0000000   0.0441305   0.0000000), wk =   0.2500000
        k(    9) = (   0.0000000  -0.0882611   0.0000000), wk =   0.1250000
        k(   10) = (   0.0441305   0.0441305   0.0000000), wk =   0.2500000
        k(   11) = (   0.0441305  -0.0882611   0.0000000), wk =   0.2500000
        k(   12) = (  -0.0882611  -0.0882611   0.0000000), wk =   0.0625000

                       cryst. coord.
        k(    1) = (   0.0000000   0.0000000   0.0000000), wk =   0.0625000
        k(    2) = (   0.0000000   0.2500000   0.0000000), wk =   0.2500000
        k(    3) = (   0.0000000  -0.5000000   0.0000000), wk =   0.1250000
        k(    4) = (   0.2500000   0.2500000   0.0000000), wk =   0.2500000
        k(    5) = (   0.2500000  -0.5000000   0.0000000), wk =   0.2500000
        k(    6) = (  -0.5000000  -0.5000000   0.0000000), wk =   0.0625000
        k(    7) = (   0.0000000   0.0000000   0.0000000), wk =   0.0625000
        k(    8) = (   0.0000000   0.2500000   0.0000000), wk =   0.2500000
        k(    9) = (   0.0000000  -0.5000000   0.0000000), wk =   0.1250000
        k(   10) = (   0.2500000   0.2500000   0.0000000), wk =   0.2500000
        k(   11) = (   0.2500000  -0.5000000   0.0000000), wk =   0.2500000
        k(   12) = (  -0.5000000  -0.5000000   0.0000000), wk =   0.0625000

     Dense  grid:  1489451 G-vectors     FFT dimensions: ( 100, 100, 320)

     Smooth grid:   487579 G-vectors     FFT dimensions: (  72,  72, 216)

     Largest allocated arrays     est. size (Mb)     dimensions
        Kohn-Sham Wavefunctions        14.96 Mb     (   5107,  192)
        Atomic wavefunctions           20.26 Mb     (   5107,  260)
        NL pseudopotentials            28.05 Mb     (   5107,  360)
        Each V/rho on FFT grid          8.24 Mb     ( 270000,   2)
        Each G-vector array             0.95 Mb     ( 124120)
        G-vector shells                 0.34 Mb     (  44791)
     Largest temporary arrays     est. size (Mb)     dimensions
        Auxiliary wavefunctions        59.85 Mb     (   5107,  768)
        Each subspace H/S matrix        2.25 Mb     ( 384, 384)
        Each <psi_i|beta_j> matrix      1.05 Mb     (    360,  192)
        Arrays for rho mixing          32.96 Mb     ( 270000,   8)

     Check: negative/imaginary core charge=   -0.000011    0.000000

     Initial potential from superposition of free atoms

     starting charge  319.99123, renormalised to  320.00000

     negative rho (up, down):  0.491E-04 0.123E-04
 --- in v_hubbard ---
Hubbard energy    0.0000
 -------
     Number of +U iterations with fixed ns =  0
     Starting occupations:
 --- enter write_ns ---
 LDA+U parameters:
U( 1)     =  0.00000000
alpha( 1) =  0.00000000
atom    1   Tr[ns(na)] (up, down, total) =   5.00000  1.00000  6.00000
   spin  1
    eigenvalues: 
  1.000  1.000  1.000  1.000  1.000
    eigenvectors:
  1.000  0.000  0.000  0.000  0.000
  0.000  1.000  0.000  0.000  0.000
  0.000  0.000  1.000  0.000  0.000
  0.000  0.000  0.000  1.000  0.000
  0.000  0.000  0.000  0.000  1.000
    occupations:
  1.000  0.000  0.000  0.000  0.000
  0.000  1.000  0.000  0.000  0.000
  0.000  0.000  1.000  0.000  0.000
  0.000  0.000  0.000  1.000  0.000
  0.000  0.000  0.000  0.000  1.000
   spin  2
    eigenvalues: 
  0.200  0.200  0.200  0.200  0.200
    eigenvectors:
  1.000  0.000  0.000  0.000  0.000
  0.000  1.000  0.000  0.000  0.000
  0.000  0.000  1.000  0.000  0.000
  0.000  0.000  0.000  1.000  0.000
  0.000  0.000  0.000  0.000  1.000
    occupations:
  0.200  0.000  0.000  0.000  0.000
  0.000  0.200  0.000  0.000  0.000
  0.000  0.000  0.200  0.000  0.000
  0.000  0.000  0.000  0.200  0.000
  0.000  0.000  0.000  0.000  0.200
atomic mag. moment =     4.000000
atom    2   Tr[ns(na)] (up, down, total) =   5.00000  1.00000  6.00000
   spin  1
    eigenvalues: 
  1.000  1.000  1.000  1.000  1.000
    eigenvectors:
  1.000  0.000  0.000  0.000  0.000
  0.000  1.000  0.000  0.000  0.000
  0.000  0.000  1.000  0.000  0.000
  0.000  0.000  0.000  1.000  0.000
  0.000  0.000  0.000  0.000  1.000
    occupations:
  1.000  0.000  0.000  0.000  0.000
  0.000  1.000  0.000  0.000  0.000
  0.000  0.000  1.000  0.000  0.000
  0.000  0.000  0.000  1.000  0.000
  0.000  0.000  0.000  0.000  1.000
   spin  2
    eigenvalues: 
  0.200  0.200  0.200  0.200  0.200
    eigenvectors:
  1.000  0.000  0.000  0.000  0.000
  0.000  1.000  0.000  0.000  0.000
  0.000  0.000  1.000  0.000  0.000
  0.000  0.000  0.000  1.000  0.000
  0.000  0.000  0.000  0.000  1.000
    occupations:
  0.200  0.000  0.000  0.000  0.000
  0.000  0.200  0.000  0.000  0.000
  0.000  0.000  0.200  0.000  0.000
  0.000  0.000  0.000  0.200  0.000
  0.000  0.000  0.000  0.000  0.200
atomic mag. moment =     4.000000
atom    3   Tr[ns(na)] (up, down, total) =   5.00000  1.00000  6.00000
   spin  1
    eigenvalues: 
  1.000  1.000  1.000  1.000  1.000
    eigenvectors:
  1.000  0.000  0.000  0.000  0.000
  0.000  1.000  0.000  0.000  0.000
  0.000  0.000  1.000  0.000  0.000
  0.000  0.000  0.000  1.000  0.000
  0.000  0.000  0.000  0.000  1.000
    occupations:
  1.000  0.000  0.000  0.000  0.000
  0.000  1.000  0.000  0.000  0.000
  0.000  0.000  1.000  0.000  0.000
  0.000  0.000  0.000  1.000  0.000
  0.000  0.000  0.000  0.000  1.000
   spin  2
    eigenvalues: 
  0.200  0.200  0.200  0.200  0.200
    eigenvectors:
  1.000  0.000  0.000  0.000  0.000
  0.000  1.000  0.000  0.000  0.000
  0.000  0.000  1.000  0.000  0.000
  0.000  0.000  0.000  1.000  0.000
  0.000  0.000  0.000  0.000  1.000
    occupations:
  0.200  0.000  0.000  0.000  0.000
  0.000  0.200  0.000  0.000  0.000
  0.000  0.000  0.200  0.000  0.000
  0.000  0.000  0.000  0.200  0.000
  0.000  0.000  0.000  0.000  0.200
atomic mag. moment =     4.000000
atom    4   Tr[ns(na)] (up, down, total) =   5.00000  1.00000  6.00000
   spin  1
    eigenvalues: 
  1.000  1.000  1.000  1.000  1.000
    eigenvectors:
  1.000  0.000  0.000  0.000  0.000
  0.000  1.000  0.000  0.000  0.000
  0.000  0.000  1.000  0.000  0.000
  0.000  0.000  0.000  1.000  0.000
  0.000  0.000  0.000  0.000  1.000
    occupations:
  1.000  0.000  0.000  0.000  0.000
  0.000  1.000  0.000  0.000  0.000
  0.000  0.000  1.000  0.000  0.000
  0.000  0.000  0.000  1.000  0.000
  0.000  0.000  0.000  0.000  1.000
   spin  2
    eigenvalues: 
  0.200  0.200  0.200  0.200  0.200
    eigenvectors:
  1.000  0.000  0.000  0.000  0.000
  0.000  1.000  0.000  0.000  0.000
  0.000  0.000  1.000  0.000  0.000
  0.000  0.000  0.000  1.000  0.000
  0.000  0.000  0.000  0.000  1.000
    occupations:
  0.200  0.000  0.000  0.000  0.000
  0.000  0.200  0.000  0.000  0.000
  0.000  0.000  0.200  0.000  0.000
  0.000  0.000  0.000  0.200  0.000
  0.000  0.000  0.000  0.000  0.200
atomic mag. moment =     4.000000
atom    5   Tr[ns(na)] (up, down, total) =   5.00000  1.00000  6.00000
   spin  1
    eigenvalues: 
  1.000  1.000  1.000  1.000  1.000
    eigenvectors:
  1.000  0.000  0.000  0.000  0.000
  0.000  1.000  0.000  0.000  0.000
  0.000  0.000  1.000  0.000  0.000
  0.000  0.000  0.000  1.000  0.000
  0.000  0.000  0.000  0.000  1.000
    occupations:
  1.000  0.000  0.000  0.000  0.000
  0.000  1.000  0.000  0.000  0.000
  0.000  0.000  1.000  0.000  0.000
  0.000  0.000  0.000  1.000  0.000
  0.000  0.000  0.000  0.000  1.000
   spin  2
    eigenvalues: 
  0.200  0.200  0.200  0.200  0.200
    eigenvectors:
  1.000  0.000  0.000  0.000  0.000
  0.000  1.000  0.000  0.000  0.000
  0.000  0.000  1.000  0.000  0.000
  0.000  0.000  0.000  1.000  0.000
  0.000  0.000  0.000  0.000  1.000
    occupations:
  0.200  0.000  0.000  0.000  0.000
  0.000  0.200  0.000  0.000  0.000
  0.000  0.000  0.200  0.000  0.000
  0.000  0.000  0.000  0.200  0.000
  0.000  0.000  0.000  0.000  0.200
atomic mag. moment =     4.000000
atom    6   Tr[ns(na)] (up, down, total) =   5.00000  1.00000  6.00000
   spin  1
    eigenvalues: 
  1.000  1.000  1.000  1.000  1.000
    eigenvectors:
  1.000  0.000  0.000  0.000  0.000
  0.000  1.000  0.000  0.000  0.000
  0.000  0.000  1.000  0.000  0.000
  0.000  0.000  0.000  1.000  0.000
  0.000  0.000  0.000  0.000  1.000
    occupations:
  1.000  0.000  0.000  0.000  0.000
  0.000  1.000  0.000  0.000  0.000
  0.000  0.000  1.000  0.000  0.000
  0.000  0.000  0.000  1.000  0.000
  0.000  0.000  0.000  0.000  1.000
   spin  2
    eigenvalues: 
  0.200  0.200  0.200  0.200  0.200
    eigenvectors:
  1.000  0.000  0.000  0.000  0.000
  0.000  1.000  0.000  0.000  0.000
  0.000  0.000  1.000  0.000  0.000
  0.000  0.000  0.000  1.000  0.000
  0.000  0.000  0.000  0.000  1.000
    occupations:
  0.200  0.000  0.000  0.000  0.000
  0.000  0.200  0.000  0.000  0.000
  0.000  0.000  0.200  0.000  0.000
  0.000  0.000  0.000  0.200  0.000
  0.000  0.000  0.000  0.000  0.200
atomic mag. moment =     4.000000
atom    7   Tr[ns(na)] (up, down, total) =   5.00000  1.00000  6.00000
   spin  1
    eigenvalues: 
  1.000  1.000  1.000  1.000  1.000
    eigenvectors:
  1.000  0.000  0.000  0.000  0.000
  0.000  1.000  0.000  0.000  0.000
  0.000  0.000  1.000  0.000  0.000
  0.000  0.000  0.000  1.000  0.000
  0.000  0.000  0.000  0.000  1.000
    occupations:
  1.000  0.000  0.000  0.000  0.000
  0.000  1.000  0.000  0.000  0.000
  0.000  0.000  1.000  0.000  0.000
  0.000  0.000  0.000  1.000  0.000
  0.000  0.000  0.000  0.000  1.000
   spin  2
    eigenvalues: 
  0.200  0.200  0.200  0.200  0.200
    eigenvectors:
  1.000  0.000  0.000  0.000  0.000
  0.000  1.000  0.000  0.000  0.000
  0.000  0.000  1.000  0.000  0.000
  0.000  0.000  0.000  1.000  0.000
  0.000  0.000  0.000  0.000  1.000
    occupations:
  0.200  0.000  0.000  0.000  0.000
  0.000  0.200  0.000  0.000  0.000
  0.000  0.000  0.200  0.000  0.000
  0.000  0.000  0.000  0.200  0.000
  0.000  0.000  0.000  0.000  0.200
atomic mag. moment =     4.000000
atom    8   Tr[ns(na)] (up, down, total) =   5.00000  1.00000  6.00000
   spin  1
    eigenvalues: 
  1.000  1.000  1.000  1.000  1.000
    eigenvectors:
  1.000  0.000  0.000  0.000  0.000
  0.000  1.000  0.000  0.000  0.000
  0.000  0.000  1.000  0.000  0.000
  0.000  0.000  0.000  1.000  0.000
  0.000  0.000  0.000  0.000  1.000
    occupations:
  1.000  0.000  0.000  0.000  0.000
  0.000  1.000  0.000  0.000  0.000
  0.000  0.000  1.000  0.000  0.000
  0.000  0.000  0.000  1.000  0.000
  0.000  0.000  0.000  0.000  1.000
   spin  2
    eigenvalues: 
  0.200  0.200  0.200  0.200  0.200
    eigenvectors:
  1.000  0.000  0.000  0.000  0.000
  0.000  1.000  0.000  0.000  0.000
  0.000  0.000  1.000  0.000  0.000
  0.000  0.000  0.000  1.000  0.000
  0.000  0.000  0.000  0.000  1.000
    occupations:
  0.200  0.000  0.000  0.000  0.000
  0.000  0.200  0.000  0.000  0.000
  0.000  0.000  0.200  0.000  0.000
  0.000  0.000  0.000  0.200  0.000
  0.000  0.000  0.000  0.000  0.200
atomic mag. moment =     4.000000
atom    9   Tr[ns(na)] (up, down, total) =   5.00000  1.00000  6.00000
   spin  1
    eigenvalues: 
  1.000  1.000  1.000  1.000  1.000
    eigenvectors:
  1.000  0.000  0.000  0.000  0.000
  0.000  1.000  0.000  0.000  0.000
  0.000  0.000  1.000  0.000  0.000
  0.000  0.000  0.000  1.000  0.000
  0.000  0.000  0.000  0.000  1.000
    occupations:
  1.000  0.000  0.000  0.000  0.000
  0.000  1.000  0.000  0.000  0.000
  0.000  0.000  1.000  0.000  0.000
  0.000  0.000  0.000  1.000  0.000
  0.000  0.000  0.000  0.000  1.000
   spin  2
    eigenvalues: 
  0.200  0.200  0.200  0.200  0.200
    eigenvectors:
  1.000  0.000  0.000  0.000  0.000
  0.000  1.000  0.000  0.000  0.000
  0.000  0.000  1.000  0.000  0.000
  0.000  0.000  0.000  1.000  0.000
  0.000  0.000  0.000  0.000  1.000
    occupations:
  0.200  0.000  0.000  0.000  0.000
  0.000  0.200  0.000  0.000  0.000
  0.000  0.000  0.200  0.000  0.000
  0.000  0.000  0.000  0.200  0.000
  0.000  0.000  0.000  0.000  0.200
atomic mag. moment =     4.000000
atom   10   Tr[ns(na)] (up, down, total) =   5.00000  1.00000  6.00000
   spin  1
    eigenvalues: 
  1.000  1.000  1.000  1.000  1.000
    eigenvectors:
  1.000  0.000  0.000  0.000  0.000
  0.000  1.000  0.000  0.000  0.000
  0.000  0.000  1.000  0.000  0.000
  0.000  0.000  0.000  1.000  0.000
  0.000  0.000  0.000  0.000  1.000
    occupations:
  1.000  0.000  0.000  0.000  0.000
  0.000  1.000  0.000  0.000  0.000
  0.000  0.000  1.000  0.000  0.000
  0.000  0.000  0.000  1.000  0.000
  0.000  0.000  0.000  0.000  1.000
   spin  2
    eigenvalues: 
  0.200  0.200  0.200  0.200  0.200
    eigenvectors:
  1.000  0.000  0.000  0.000  0.000
  0.000  1.000  0.000  0.000  0.000
  0.000  0.000  1.000  0.000  0.000
  0.000  0.000  0.000  1.000  0.000
  0.000  0.000  0.000  0.000  1.000
    occupations:
  0.200  0.000  0.000  0.000  0.000
  0.000  0.200  0.000  0.000  0.000
  0.000  0.000  0.200  0.000  0.000
  0.000  0.000  0.000  0.200  0.000
  0.000  0.000  0.000  0.000  0.200
atomic mag. moment =     4.000000
atom   11   Tr[ns(na)] (up, down, total) =   5.00000  1.00000  6.00000
   spin  1
    eigenvalues: 
  1.000  1.000  1.000  1.000  1.000
    eigenvectors:
  1.000  0.000  0.000  0.000  0.000
  0.000  1.000  0.000  0.000  0.000
  0.000  0.000  1.000  0.000  0.000
  0.000  0.000  0.000  1.000  0.000
  0.000  0.000  0.000  0.000  1.000
    occupations:
  1.000  0.000  0.000  0.000  0.000
  0.000  1.000  0.000  0.000  0.000
  0.000  0.000  1.000  0.000  0.000
  0.000  0.000  0.000  1.000  0.000
  0.000  0.000  0.000  0.000  1.000
   spin  2
    eigenvalues: 
  0.200  0.200  0.200  0.200  0.200
    eigenvectors:
  1.000  0.000  0.000  0.000  0.000
  0.000  1.000  0.000  0.000  0.000
  0.000  0.000  1.000  0.000  0.000
  0.000  0.000  0.000  1.000  0.000
  0.000  0.000  0.000  0.000  1.000
    occupations:
  0.200  0.000  0.000  0.000  0.000
  0.000  0.200  0.000  0.000  0.000
  0.000  0.000  0.200  0.000  0.000
  0.000  0.000  0.000  0.200  0.000
  0.000  0.000  0.000  0.000  0.200
atomic mag. moment =     4.000000
atom   12   Tr[ns(na)] (up, down, total) =   5.00000  1.00000  6.00000
   spin  1
    eigenvalues: 
  1.000  1.000  1.000  1.000  1.000
    eigenvectors:
  1.000  0.000  0.000  0.000  0.000
  0.000  1.000  0.000  0.000  0.000
  0.000  0.000  1.000  0.000  0.000
  0.000  0.000  0.000  1.000  0.000
  0.000  0.000  0.000  0.000  1.000
    occupations:
  1.000  0.000  0.000  0.000  0.000
  0.000  1.000  0.000  0.000  0.000
  0.000  0.000  1.000  0.000  0.000
  0.000  0.000  0.000  1.000  0.000
  0.000  0.000  0.000  0.000  1.000
   spin  2
    eigenvalues: 
  0.200  0.200  0.200  0.200  0.200
    eigenvectors:
  1.000  0.000  0.000  0.000  0.000
  0.000  1.000  0.000  0.000  0.000
  0.000  0.000  1.000  0.000  0.000
  0.000  0.000  0.000  1.000  0.000
  0.000  0.000  0.000  0.000  1.000
    occupations:
  0.200  0.000  0.000  0.000  0.000
  0.000  0.200  0.000  0.000  0.000
  0.000  0.000  0.200  0.000  0.000
  0.000  0.000  0.000  0.200  0.000
  0.000  0.000  0.000  0.000  0.200
atomic mag. moment =     4.000000
atom   13   Tr[ns(na)] (up, down, total) =   5.00000  1.00000  6.00000
   spin  1
    eigenvalues: 
  1.000  1.000  1.000  1.000  1.000
    eigenvectors:
  1.000  0.000  0.000  0.000  0.000
  0.000  1.000  0.000  0.000  0.000
  0.000  0.000  1.000  0.000  0.000
  0.000  0.000  0.000  1.000  0.000
  0.000  0.000  0.000  0.000  1.000
    occupations:
  1.000  0.000  0.000  0.000  0.000
  0.000  1.000  0.000  0.000  0.000
  0.000  0.000  1.000  0.000  0.000
  0.000  0.000  0.000  1.000  0.000
  0.000  0.000  0.000  0.000  1.000
   spin  2
    eigenvalues: 
  0.200  0.200  0.200  0.200  0.200
    eigenvectors:
  1.000  0.000  0.000  0.000  0.000
  0.000  1.000  0.000  0.000  0.000
  0.000  0.000  1.000  0.000  0.000
  0.000  0.000  0.000  1.000  0.000
  0.000  0.000  0.000  0.000  1.000
    occupations:
  0.200  0.000  0.000  0.000  0.000
  0.000  0.200  0.000  0.000  0.000
  0.000  0.000  0.200  0.000  0.000
  0.000  0.000  0.000  0.200  0.000
  0.000  0.000  0.000  0.000  0.200
atomic mag. moment =     4.000000
atom   14   Tr[ns(na)] (up, down, total) =   5.00000  1.00000  6.00000
   spin  1
    eigenvalues: 
  1.000  1.000  1.000  1.000  1.000
    eigenvectors:
  1.000  0.000  0.000  0.000  0.000
  0.000  1.000  0.000  0.000  0.000
  0.000  0.000  1.000  0.000  0.000
  0.000  0.000  0.000  1.000  0.000
  0.000  0.000  0.000  0.000  1.000
    occupations:
  1.000  0.000  0.000  0.000  0.000
  0.000  1.000  0.000  0.000  0.000
  0.000  0.000  1.000  0.000  0.000
  0.000  0.000  0.000  1.000  0.000
  0.000  0.000  0.000  0.000  1.000
   spin  2
    eigenvalues: 
  0.200  0.200  0.200  0.200  0.200
    eigenvectors:
  1.000  0.000  0.000  0.000  0.000
  0.000  1.000  0.000  0.000  0.000
  0.000  0.000  1.000  0.000  0.000
  0.000  0.000  0.000  1.000  0.000
  0.000  0.000  0.000  0.000  1.000
    occupations:
  0.200  0.000  0.000  0.000  0.000
  0.000  0.200  0.000  0.000  0.000
  0.000  0.000  0.200  0.000  0.000
  0.000  0.000  0.000  0.200  0.000
  0.000  0.000  0.000  0.000  0.200
atomic mag. moment =     4.000000
atom   15   Tr[ns(na)] (up, down, total) =   5.00000  1.00000  6.00000
   spin  1
    eigenvalues: 
  1.000  1.000  1.000  1.000  1.000
    eigenvectors:
  1.000  0.000  0.000  0.000  0.000
  0.000  1.000  0.000  0.000  0.000
  0.000  0.000  1.000  0.000  0.000
  0.000  0.000  0.000  1.000  0.000
  0.000  0.000  0.000  0.000  1.000
    occupations:
  1.000  0.000  0.000  0.000  0.000
  0.000  1.000  0.000  0.000  0.000
  0.000  0.000  1.000  0.000  0.000
  0.000  0.000  0.000  1.000  0.000
  0.000  0.000  0.000  0.000  1.000
   spin  2
    eigenvalues: 
  0.200  0.200  0.200  0.200  0.200
    eigenvectors:
  1.000  0.000  0.000  0.000  0.000
  0.000  1.000  0.000  0.000  0.000
  0.000  0.000  1.000  0.000  0.000
  0.000  0.000  0.000  1.000  0.000
  0.000  0.000  0.000  0.000  1.000
    occupations:
  0.200  0.000  0.000  0.000  0.000
  0.000  0.200  0.000  0.000  0.000
  0.000  0.000  0.200  0.000  0.000
  0.000  0.000  0.000  0.200  0.000
  0.000  0.000  0.000  0.000  0.200
atomic mag. moment =     4.000000
atom   16   Tr[ns(na)] (up, down, total) =   5.00000  1.00000  6.00000
   spin  1
    eigenvalues: 
  1.000  1.000  1.000  1.000  1.000
    eigenvectors:
  1.000  0.000  0.000  0.000  0.000
  0.000  1.000  0.000  0.000  0.000
  0.000  0.000  1.000  0.000  0.000
  0.000  0.000  0.000  1.000  0.000
  0.000  0.000  0.000  0.000  1.000
    occupations:
  1.000  0.000  0.000  0.000  0.000
  0.000  1.000  0.000  0.000  0.000
  0.000  0.000  1.000  0.000  0.000
  0.000  0.000  0.000  1.000  0.000
  0.000  0.000  0.000  0.000  1.000
   spin  2
    eigenvalues: 
  0.200  0.200  0.200  0.200  0.200
    eigenvectors:
  1.000  0.000  0.000  0.000  0.000
  0.000  1.000  0.000  0.000  0.000
  0.000  0.000  1.000  0.000  0.000
  0.000  0.000  0.000  1.000  0.000
  0.000  0.000  0.000  0.000  1.000
    occupations:
  0.200  0.000  0.000  0.000  0.000
  0.000  0.200  0.000  0.000  0.000
  0.000  0.000  0.200  0.000  0.000
  0.000  0.000  0.000  0.200  0.000
  0.000  0.000  0.000  0.000  0.200
atomic mag. moment =     4.000000
atom   17   Tr[ns(na)] (up, down, total) =   5.00000  1.00000  6.00000
   spin  1
    eigenvalues: 
  1.000  1.000  1.000  1.000  1.000
    eigenvectors:
  1.000  0.000  0.000  0.000  0.000
  0.000  1.000  0.000  0.000  0.000
  0.000  0.000  1.000  0.000  0.000
  0.000  0.000  0.000  1.000  0.000
  0.000  0.000  0.000  0.000  1.000
    occupations:
  1.000  0.000  0.000  0.000  0.000
  0.000  1.000  0.000  0.000  0.000
  0.000  0.000  1.000  0.000  0.000
  0.000  0.000  0.000  1.000  0.000
  0.000  0.000  0.000  0.000  1.000
   spin  2
    eigenvalues: 
  0.200  0.200  0.200  0.200  0.200
    eigenvectors:
  1.000  0.000  0.000  0.000  0.000
  0.000  1.000  0.000  0.000  0.000
  0.000  0.000  1.000  0.000  0.000
  0.000  0.000  0.000  1.000  0.000
  0.000  0.000  0.000  0.000  1.000
    occupations:
  0.200  0.000  0.000  0.000  0.000
  0.000  0.200  0.000  0.000  0.000
  0.000  0.000  0.200  0.000  0.000
  0.000  0.000  0.000  0.200  0.000
  0.000  0.000  0.000  0.000  0.200
atomic mag. moment =     4.000000
atom   18   Tr[ns(na)] (up, down, total) =   5.00000  1.00000  6.00000
   spin  1
    eigenvalues: 
  1.000  1.000  1.000  1.000  1.000
    eigenvectors:
  1.000  0.000  0.000  0.000  0.000
  0.000  1.000  0.000  0.000  0.000
  0.000  0.000  1.000  0.000  0.000
  0.000  0.000  0.000  1.000  0.000
  0.000  0.000  0.000  0.000  1.000
    occupations:
  1.000  0.000  0.000  0.000  0.000
  0.000  1.000  0.000  0.000  0.000
  0.000  0.000  1.000  0.000  0.000
  0.000  0.000  0.000  1.000  0.000
  0.000  0.000  0.000  0.000  1.000
   spin  2
    eigenvalues: 
  0.200  0.200  0.200  0.200  0.200
    eigenvectors:
  1.000  0.000  0.000  0.000  0.000
  0.000  1.000  0.000  0.000  0.000
  0.000  0.000  1.000  0.000  0.000
  0.000  0.000  0.000  1.000  0.000
  0.000  0.000  0.000  0.000  1.000
    occupations:
  0.200  0.000  0.000  0.000  0.000
  0.000  0.200  0.000  0.000  0.000
  0.000  0.000  0.200  0.000  0.000
  0.000  0.000  0.000  0.200  0.000
  0.000  0.000  0.000  0.000  0.200
atomic mag. moment =     4.000000
atom   19   Tr[ns(na)] (up, down, total) =   5.00000  1.00000  6.00000
   spin  1
    eigenvalues: 
  1.000  1.000  1.000  1.000  1.000
    eigenvectors:
  1.000  0.000  0.000  0.000  0.000
  0.000  1.000  0.000  0.000  0.000
  0.000  0.000  1.000  0.000  0.000
  0.000  0.000  0.000  1.000  0.000
  0.000  0.000  0.000  0.000  1.000
    occupations:
  1.000  0.000  0.000  0.000  0.000
  0.000  1.000  0.000  0.000  0.000
  0.000  0.000  1.000  0.000  0.000
  0.000  0.000  0.000  1.000  0.000
  0.000  0.000  0.000  0.000  1.000
   spin  2
    eigenvalues: 
  0.200  0.200  0.200  0.200  0.200
    eigenvectors:
  1.000  0.000  0.000  0.000  0.000
  0.000  1.000  0.000  0.000  0.000
  0.000  0.000  1.000  0.000  0.000
  0.000  0.000  0.000  1.000  0.000
  0.000  0.000  0.000  0.000  1.000
    occupations:
  0.200  0.000  0.000  0.000  0.000
  0.000  0.200  0.000  0.000  0.000
  0.000  0.000  0.200  0.000  0.000
  0.000  0.000  0.000  0.200  0.000
  0.000  0.000  0.000  0.000  0.200
atomic mag. moment =     4.000000
atom   20   Tr[ns(na)] (up, down, total) =   5.00000  1.00000  6.00000
   spin  1
    eigenvalues: 
  1.000  1.000  1.000  1.000  1.000
    eigenvectors:
  1.000  0.000  0.000  0.000  0.000
  0.000  1.000  0.000  0.000  0.000
  0.000  0.000  1.000  0.000  0.000
  0.000  0.000  0.000  1.000  0.000
  0.000  0.000  0.000  0.000  1.000
    occupations:
  1.000  0.000  0.000  0.000  0.000
  0.000  1.000  0.000  0.000  0.000
  0.000  0.000  1.000  0.000  0.000
  0.000  0.000  0.000  1.000  0.000
  0.000  0.000  0.000  0.000  1.000
   spin  2
    eigenvalues: 
  0.200  0.200  0.200  0.200  0.200
    eigenvectors:
  1.000  0.000  0.000  0.000  0.000
  0.000  1.000  0.000  0.000  0.000
  0.000  0.000  1.000  0.000  0.000
  0.000  0.000  0.000  1.000  0.000
  0.000  0.000  0.000  0.000  1.000
    occupations:
  0.200  0.000  0.000  0.000  0.000
  0.000  0.200  0.000  0.000  0.000
  0.000  0.000  0.200  0.000  0.000
  0.000  0.000  0.000  0.200  0.000
  0.000  0.000  0.000  0.000  0.200
atomic mag. moment =     4.000000
N of occupied +U levels = 120.0000000
 --- exit write_ns ---
 Atomic wfc used for LDA+U Projector are NOT orthogonalized
     Starting wfc are  260 randomized atomic wfcs
     Checking if some PAW data can be deallocated... 

     total cpu time spent up to now is       41.2 secs

     per-process dynamical memory:   418.0 Mb

     Self-consistent Calculation

     iteration #  1     ecut=    95.00 Ry     beta=0.50
     Davidson diagonalization with overlap
     ethr =  1.00E-02,  avg # of iterations =  3.0
 --- enter write_ns ---
 LDA+U parameters:
U( 1)     =  0.00000000
alpha( 1) =  0.00000000
atom    1   Tr[ns(na)] (up, down, total) =   4.96776  1.13288  6.10063
   spin  1
    eigenvalues: 
  0.992  0.992  0.992  0.995  0.996
    eigenvectors:
  1.000  0.000  0.000  0.000  0.000
  0.000  0.176  0.824  0.000  0.000
  0.000  0.824  0.176  0.000  0.000
  0.000  0.000  0.000  0.000  1.000
  0.000  0.000  0.000  1.000  0.000
    occupations:
  0.992 -0.000 -0.000  0.000  0.000
 -0.000  0.992 -0.000  0.000  0.000
 -0.000 -0.000  0.992  0.000  0.000
  0.000  0.000  0.000  0.996 -0.000
  0.000  0.000  0.000 -0.000  0.995
   spin  2
    eigenvalues: 
  0.194  0.194  0.212  0.243  0.289
    eigenvectors:
  0.000  0.000  1.000  0.000  0.000
  0.224  0.776  0.000  0.000  0.000
  0.776  0.224  0.000  0.000  0.000
  0.000  0.000  0.000  1.000  0.000
  0.000  0.000  0.000  0.000  1.000
    occupations:
  0.212 -0.000 -0.000  0.000  0.000
 -0.000  0.194 -0.000  0.000  0.000
 -0.000 -0.000  0.194  0.000  0.000
  0.000  0.000  0.000  0.243 -0.000
  0.000  0.000  0.000 -0.000  0.289
atomic mag. moment =     3.834883
atom    2   Tr[ns(na)] (up, down, total) =   4.96810  1.13218  6.10028
   spin  1
    eigenvalues: 
  0.992  0.993  0.993  0.995  0.996
    eigenvectors:
  1.000  0.000  0.000  0.000  0.000
  0.000  0.000  1.000  0.000  0.000
  0.000  1.000  0.000  0.000  0.000
  0.000  0.000  0.000  0.000  1.000
  0.000  0.000  0.000  1.000  0.000
    occupations:
  0.992 -0.000 -0.000 -0.000  0.000
 -0.000  0.993 -0.000  0.000  0.000
 -0.000 -0.000  0.993  0.000  0.000
 -0.000  0.000  0.000  0.996 -0.000
  0.000  0.000  0.000 -0.000  0.995
   spin  2
    eigenvalues: 
  0.194  0.194  0.212  0.243  0.288
    eigenvectors:
  0.000  0.000  1.000  0.000  0.000
  0.000  1.000  0.000  0.000  0.000
  1.000  0.000  0.000  0.000  0.000
  0.000  0.000  0.000  1.000  0.000
  0.000  0.000  0.000  0.000  1.000
    occupations:
  0.212 -0.000 -0.000 -0.000  0.000
 -0.000  0.194 -0.000  0.000  0.000
 -0.000 -0.000  0.194  0.000  0.000
 -0.000  0.000  0.000  0.243 -0.000
  0.000  0.000  0.000 -0.000  0.288
atomic mag. moment =     3.835914
atom    3   Tr[ns(na)] (up, down, total) =   4.96810  1.13218  6.10028
   spin  1
    eigenvalues: 
  0.992  0.993  0.993  0.995  0.996
    eigenvectors:
  1.000  0.000  0.000  0.000  0.000
  0.000  1.000  0.000  0.000  0.000
  0.000  0.000  1.000  0.000  0.000
  0.000  0.000  0.000  0.000  1.000
  0.000  0.000  0.000  1.000  0.000
    occupations:
  0.992 -0.000 -0.000  0.000  0.000
 -0.000  0.993 -0.000  0.000  0.000
 -0.000 -0.000  0.993  0.000  0.000
  0.000  0.000  0.000  0.996 -0.000
  0.000  0.000  0.000 -0.000  0.995
   spin  2
    eigenvalues: 
  0.194  0.194  0.212  0.243  0.288
    eigenvectors:
  0.000  0.000  1.000  0.000  0.000
  1.000  0.000  0.000  0.000  0.000
  0.000  1.000  0.000  0.000  0.000
  0.000  0.000  0.000  1.000  0.000
  0.000  0.000  0.000  0.000  1.000
    occupations:
  0.212 -0.000 -0.000  0.000  0.000
 -0.000  0.194 -0.000  0.000  0.000
 -0.000 -0.000  0.194  0.000  0.000
  0.000  0.000  0.000  0.243 -0.000
  0.000  0.000  0.000 -0.000  0.288
atomic mag. moment =     3.835914
atom    4   Tr[ns(na)] (up, down, total) =   4.96768  1.13064  6.09832
   spin  1
    eigenvalues: 
  0.992  0.992  0.992  0.995  0.996
    eigenvectors:
  1.000  0.000  0.000  0.000  0.000
  0.000  0.214  0.786  0.000  0.000
  0.000  0.786  0.214  0.000  0.000
  0.000  0.000  0.000  0.000  1.000
  0.000  0.000  0.000  1.000  0.000
    occupations:
  0.992 -0.000 -0.000  0.000  0.000
 -0.000  0.992 -0.000  0.000  0.000
 -0.000 -0.000  0.992  0.000  0.000
  0.000  0.000  0.000  0.996 -0.000
  0.000  0.000  0.000 -0.000  0.995
   spin  2
    eigenvalues: 
  0.194  0.194  0.212  0.242  0.288
    eigenvectors:
  0.000  0.000  1.000  0.000  0.000
  0.244  0.756  0.000  0.000  0.000
  0.756  0.244  0.000  0.000  0.000
  0.000  0.000  0.000  1.000  0.000
  0.000  0.000  0.000  0.000  1.000
    occupations:
  0.212 -0.000 -0.000  0.000  0.000
 -0.000  0.194 -0.000  0.000  0.000
 -0.000 -0.000  0.194  0.000  0.000
  0.000  0.000  0.000  0.242 -0.000
  0.000  0.000  0.000 -0.000  0.288
atomic mag. moment =     3.837033
atom    5   Tr[ns(na)] (up, down, total) =   4.97604  2.40415  7.38019
   spin  1
    eigenvalues: 
  0.995  0.995  0.995  0.996  0.996
    eigenvectors:
  0.000  0.000  0.000  0.000  1.000
  0.500  0.491  0.009  0.000  0.000
  0.500  0.491  0.009  0.000  0.000
  0.000  0.019  0.981  0.000  0.000
  0.000  0.000  0.000  1.000  0.000
    occupations:
  0.996  0.000  0.000  0.000  0.000
  0.000  0.995 -0.000  0.000  0.000
  0.000 -0.000  0.995 -0.000  0.000
  0.000  0.000 -0.000  0.995 -0.000
  0.000  0.000  0.000 -0.000  0.996
   spin  2
    eigenvalues: 
  0.398  0.420  0.526  0.530  0.530
    eigenvectors:
  0.000  1.000  0.000  0.000  0.000
  0.000  0.000  0.001  0.499  0.500
  0.000  0.000  0.001  0.499  0.500
  1.000  0.000  0.000  0.000  0.000
  0.000  0.000  0.997  0.003  0.000
    occupations:
  0.420  0.000  0.000  0.000  0.000
  0.000  0.530 -0.000 -0.000 -0.000
  0.000 -0.000  0.530  0.000 -0.000
  0.000 -0.000  0.000  0.398 -0.000
  0.000 -0.000 -0.000 -0.000  0.526
atomic mag. moment =     2.571899
atom    6   Tr[ns(na)] (up, down, total) =   4.97604  2.40415  7.38019
   spin  1
    eigenvalues: 
  0.995  0.995  0.995  0.996  0.996
    eigenvectors:
  0.000  0.000  0.000  0.000  1.000
  0.500  0.491  0.009  0.000  0.000
  0.500  0.491  0.009  0.000  0.000
  0.000  0.019  0.981  0.000  0.000
  0.000  0.000  0.000  1.000  0.000
    occupations:
  0.996  0.000 -0.000  0.000 -0.000
  0.000  0.995  0.000  0.000 -0.000
 -0.000  0.000  0.995  0.000  0.000
  0.000  0.000  0.000  0.995 -0.000
 -0.000 -0.000  0.000 -0.000  0.996
   spin  2
    eigenvalues: 
  0.398  0.420  0.526  0.530  0.530
    eigenvectors:
  0.000  1.000  0.000  0.000  0.000
  0.000  0.000  0.001  0.499  0.500
  0.000  0.000  0.001  0.499  0.500
  1.000  0.000  0.000  0.000  0.000
  0.000  0.000  0.997  0.003  0.000
    occupations:
  0.420  0.000 -0.000  0.000 -0.000
  0.000  0.530  0.000 -0.000  0.000
 -0.000  0.000  0.530 -0.000 -0.000
  0.000 -0.000 -0.000  0.398 -0.000
 -0.000  0.000 -0.000 -0.000  0.526
atomic mag. moment =     2.571899
atom    7   Tr[ns(na)] (up, down, total) =   4.97604  2.40415  7.38019
   spin  1
    eigenvalues: 
  0.995  0.995  0.995  0.996  0.996
    eigenvectors:
  0.000  0.000  0.000  0.000  1.000
  0.500  0.491  0.009  0.000  0.000
  0.500  0.491  0.009  0.000  0.000
  0.000  0.019  0.981  0.000  0.000
  0.000  0.000  0.000  1.000  0.000
    occupations:
  0.996 -0.000  0.000  0.000 -0.000
 -0.000  0.995  0.000 -0.000  0.000
  0.000  0.000  0.995 -0.000 -0.000
  0.000 -0.000 -0.000  0.995 -0.000
 -0.000  0.000 -0.000 -0.000  0.996
   spin  2
    eigenvalues: 
  0.398  0.420  0.526  0.530  0.530
    eigenvectors:
  0.000  1.000  0.000  0.000  0.000
  0.000  0.000  0.001  0.499  0.500
  0.000  0.000  0.001  0.499  0.500
  1.000  0.000  0.000  0.000  0.000
  0.000  0.000  0.997  0.003  0.000
    occupations:
  0.420 -0.000  0.000  0.000 -0.000
 -0.000  0.530  0.000  0.000 -0.000
  0.000  0.000  0.530  0.000  0.000
  0.000  0.000  0.000  0.398 -0.000
 -0.000 -0.000  0.000 -0.000  0.526
atomic mag. moment =     2.571899
atom    8   Tr[ns(na)] (up, down, total) =   4.97604  2.40415  7.38019
   spin  1
    eigenvalues: 
  0.995  0.995  0.995  0.996  0.996
    eigenvectors:
  0.000  0.000  0.000  0.000  1.000
  0.500  0.491  0.009  0.000  0.000
  0.500  0.491  0.009  0.000  0.000
  0.000  0.019  0.981  0.000  0.000
  0.000  0.000  0.000  1.000  0.000
    occupations:
  0.996 -0.000 -0.000  0.000  0.000
 -0.000  0.995 -0.000 -0.000 -0.000
 -0.000 -0.000  0.995  0.000 -0.000
  0.000 -0.000  0.000  0.995 -0.000
  0.000 -0.000 -0.000 -0.000  0.996
   spin  2
    eigenvalues: 
  0.398  0.420  0.526  0.530  0.530
    eigenvectors:
  0.000  1.000  0.000  0.000  0.000
  0.000  0.000  0.001  0.499  0.500
  0.000  0.000  0.001  0.499  0.500
  1.000  0.000  0.000  0.000  0.000
  0.000  0.000  0.997  0.003  0.000
    occupations:
  0.420 -0.000 -0.000  0.000  0.000
 -0.000  0.530 -0.000  0.000  0.000
 -0.000 -0.000  0.530 -0.000  0.000
  0.000  0.000 -0.000  0.398 -0.000
  0.000  0.000  0.000 -0.000  0.526
atomic mag. moment =     2.571899
atom    9   Tr[ns(na)] (up, down, total) =   4.97519  2.37589  7.35108
   spin  1
    eigenvalues: 
  0.994  0.994  0.995  0.995  0.997
    eigenvectors:
  0.000  0.000  0.000  0.000  1.000
  0.198  0.802  0.000  0.000  0.000
  0.802  0.198  0.000  0.000  0.000
  0.000  0.000  1.000  0.000  0.000
  0.000  0.000  0.000  1.000  0.000
    occupations:
  0.997 -0.000 -0.000  0.000  0.000
 -0.000  0.994 -0.000  0.000  0.000
 -0.000 -0.000  0.994  0.000  0.000
  0.000  0.000  0.000  0.995 -0.000
  0.000  0.000  0.000 -0.000  0.995
   spin  2
    eigenvalues: 
  0.362  0.401  0.533  0.533  0.548
    eigenvectors:
  1.000  0.000  0.000  0.000  0.000
  0.000  0.000  0.236  0.764  0.000
  0.000  0.000  0.764  0.236  0.000
  0.000  1.000  0.000  0.000  0.000
  0.000  0.000  0.000  0.000  1.000
    occupations:
  0.362 -0.000 -0.000  0.000  0.000
 -0.000  0.533 -0.000  0.000  0.000
 -0.000 -0.000  0.533  0.000  0.000
  0.000  0.000  0.000  0.401 -0.000
  0.000  0.000  0.000 -0.000  0.548
atomic mag. moment =     2.599307
atom   10   Tr[ns(na)] (up, down, total) =   4.97497  2.37911  7.35408
   spin  1
    eigenvalues: 
  0.994  0.994  0.995  0.995  0.997
    eigenvectors:
  0.000  0.000  0.000  0.000  1.000
  0.000  1.000  0.000  0.000  0.000
  1.000  0.000  0.000  0.000  0.000
  0.000  0.000  1.000  0.000  0.000
  0.000  0.000  0.000  1.000  0.000
    occupations:
  0.997 -0.000 -0.000  0.000  0.000
 -0.000  0.994 -0.000  0.000  0.000
 -0.000 -0.000  0.994  0.000  0.000
  0.000  0.000  0.000  0.995 -0.000
  0.000  0.000  0.000 -0.000  0.995
   spin  2
    eigenvalues: 
  0.362  0.401  0.533  0.534  0.548
    eigenvectors:
  1.000  0.000  0.000  0.000  0.000
  0.000  0.000  1.000  0.000  0.000
  0.000  0.000  0.000  1.000  0.000
  0.000  1.000  0.000  0.000  0.000
  0.000  0.000  0.000  0.000  1.000
    occupations:
  0.362 -0.000 -0.000 -0.000  0.000
 -0.000  0.533 -0.000  0.000  0.000
 -0.000 -0.000  0.534  0.000  0.000
 -0.000  0.000  0.000  0.401 -0.000
  0.000  0.000  0.000 -0.000  0.548
atomic mag. moment =     2.595854
atom   11   Tr[ns(na)] (up, down, total) =   4.97497  2.37911  7.35408
   spin  1
    eigenvalues: 
  0.994  0.994  0.995  0.995  0.997
    eigenvectors:
  0.000  0.000  0.000  0.000  1.000
  1.000  0.000  0.000  0.000  0.000
  0.000  1.000  0.000  0.000  0.000
  0.000  0.000  1.000  0.000  0.000
  0.000  0.000  0.000  1.000  0.000
    occupations:
  0.997 -0.000 -0.000 -0.000  0.000
 -0.000  0.994 -0.000  0.000  0.000
 -0.000 -0.000  0.994  0.000  0.000
 -0.000  0.000  0.000  0.995 -0.000
  0.000  0.000  0.000 -0.000  0.995
   spin  2
    eigenvalues: 
  0.362  0.401  0.533  0.534  0.548
    eigenvectors:
  1.000  0.000  0.000  0.000  0.000
  0.000  0.000  0.000  1.000  0.000
  0.000  0.000  1.000  0.000  0.000
  0.000  1.000  0.000  0.000  0.000
  0.000  0.000  0.000  0.000  1.000
    occupations:
  0.362 -0.000 -0.000  0.000  0.000
 -0.000  0.534 -0.000  0.000  0.000
 -0.000 -0.000  0.533  0.000  0.000
  0.000  0.000  0.000  0.401 -0.000
  0.000  0.000  0.000 -0.000  0.548
atomic mag. moment =     2.595854
atom   12   Tr[ns(na)] (up, down, total) =   4.97523  2.37665  7.35188
   spin  1
    eigenvalues: 
  0.994  0.994  0.995  0.995  0.997
    eigenvectors:
  0.000  0.000  0.000  0.000  1.000
  0.223  0.777  0.000  0.000  0.000
  0.777  0.223  0.000  0.000  0.000
  0.000  0.000  1.000  0.000  0.000
  0.000  0.000  0.000  1.000  0.000
    occupations:
  0.997 -0.000 -0.000  0.000  0.000
 -0.000  0.994 -0.000  0.000  0.000
 -0.000 -0.000  0.994  0.000  0.000
  0.000  0.000  0.000  0.995 -0.000
  0.000  0.000  0.000 -0.000  0.995
   spin  2
    eigenvalues: 
  0.362  0.401  0.533  0.533  0.548
    eigenvectors:
  1.000  0.000  0.000  0.000  0.000
  0.000  0.000  0.220  0.780  0.000
  0.000  0.000  0.780  0.220  0.000
  0.000  1.000  0.000  0.000  0.000
  0.000  0.000  0.000  0.000  1.000
    occupations:
  0.362 -0.000 -0.000  0.000  0.000
 -0.000  0.533 -0.000  0.000  0.000
 -0.000 -0.000  0.533  0.000  0.000
  0.000  0.000  0.000  0.401 -0.000
  0.000  0.000  0.000 -0.000  0.548
atomic mag. moment =     2.598583
atom   13   Tr[ns(na)] (up, down, total) =   4.97620  2.40811  7.38431
   spin  1
    eigenvalues: 
  0.995  0.995  0.995  0.996  0.996
    eigenvectors:
  0.000  0.000  0.000  0.001  0.999
  0.500  0.149  0.351  0.000  0.000
  0.500  0.149  0.351  0.000  0.000
  0.000  0.703  0.297  0.000  0.000
  0.000  0.000  0.000  0.999  0.001
    occupations:
  0.996  0.000  0.000  0.000  0.000
  0.000  0.995 -0.000 -0.000 -0.000
  0.000 -0.000  0.995  0.000 -0.000
  0.000 -0.000  0.000  0.995 -0.000
  0.000 -0.000 -0.000 -0.000  0.996
   spin  2
    eigenvalues: 
  0.399  0.420  0.527  0.531  0.531
    eigenvectors:
  0.000  1.000  0.000  0.000  0.000
  0.000  0.000  0.000  0.500  0.500
  0.000  0.000  0.000  0.500  0.500
  1.000  0.000  0.000  0.000  0.000
  0.000  0.000  1.000  0.000  0.000
    occupations:
  0.420 -0.000 -0.000  0.000  0.000
 -0.000  0.531  0.000  0.000 -0.000
 -0.000  0.000  0.531 -0.000 -0.000
  0.000  0.000 -0.000  0.399 -0.000
  0.000 -0.000 -0.000 -0.000  0.527
atomic mag. moment =     2.568088
atom   14   Tr[ns(na)] (up, down, total) =   4.97620  2.40811  7.38431
   spin  1
    eigenvalues: 
  0.995  0.995  0.995  0.996  0.996
    eigenvectors:
  0.000  0.000  0.000  0.001  0.999
  0.500  0.149  0.351  0.000  0.000
  0.500  0.149  0.351  0.000  0.000
  0.000  0.703  0.297  0.000  0.000
  0.000  0.000  0.000  0.999  0.001
    occupations:
  0.996  0.000 -0.000  0.000 -0.000
  0.000  0.995  0.000 -0.000  0.000
 -0.000  0.000  0.995 -0.000 -0.000
  0.000 -0.000 -0.000  0.995 -0.000
 -0.000  0.000 -0.000 -0.000  0.996
   spin  2
    eigenvalues: 
  0.399  0.420  0.527  0.531  0.531
    eigenvectors:
  0.000  1.000  0.000  0.000  0.000
  0.000  0.000  0.000  0.500  0.500
  0.000  0.000  0.000  0.500  0.500
  1.000  0.000  0.000  0.000  0.000
  0.000  0.000  1.000  0.000  0.000
    occupations:
  0.420 -0.000  0.000  0.000 -0.000
 -0.000  0.531 -0.000  0.000  0.000
  0.000 -0.000  0.531  0.000 -0.000
  0.000  0.000  0.000  0.399 -0.000
 -0.000  0.000 -0.000 -0.000  0.527
atomic mag. moment =     2.568088
atom   15   Tr[ns(na)] (up, down, total) =   4.97620  2.40811  7.38431
   spin  1
    eigenvalues: 
  0.995  0.995  0.995  0.996  0.996
    eigenvectors:
  0.000  0.000  0.000  0.001  0.999
  0.500  0.149  0.351  0.000  0.000
  0.500  0.149  0.351  0.000  0.000
  0.000  0.703  0.297  0.000  0.000
  0.000  0.000  0.000  0.999  0.001
    occupations:
  0.996 -0.000  0.000  0.000 -0.000
 -0.000  0.995  0.000  0.000 -0.000
  0.000  0.000  0.995  0.000  0.000
  0.000  0.000  0.000  0.995 -0.000
 -0.000 -0.000  0.000 -0.000  0.996
   spin  2
    eigenvalues: 
  0.399  0.420  0.527  0.531  0.531
    eigenvectors:
  0.000  1.000  0.000  0.000  0.000
  0.000  0.000  0.000  0.500  0.500
  0.000  0.000  0.000  0.500  0.500
  1.000  0.000  0.000  0.000  0.000
  0.000  0.000  1.000  0.000  0.000
    occupations:
  0.420  0.000 -0.000  0.000 -0.000
  0.000  0.531 -0.000 -0.000 -0.000
 -0.000 -0.000  0.531 -0.000  0.000
  0.000 -0.000 -0.000  0.399 -0.000
 -0.000 -0.000  0.000 -0.000  0.527
atomic mag. moment =     2.568088
atom   16   Tr[ns(na)] (up, down, total) =   4.97620  2.40811  7.38431
   spin  1
    eigenvalues: 
  0.995  0.995  0.995  0.996  0.996
    eigenvectors:
  0.000  0.000  0.000  0.001  0.999
  0.500  0.149  0.351  0.000  0.000
  0.500  0.149  0.351  0.000  0.000
  0.000  0.703  0.297  0.000  0.000
  0.000  0.000  0.000  0.999  0.001
    occupations:
  0.996 -0.000 -0.000  0.000  0.000
 -0.000  0.995 -0.000  0.000  0.000
 -0.000 -0.000  0.995 -0.000  0.000
  0.000  0.000 -0.000  0.995 -0.000
  0.000  0.000  0.000 -0.000  0.996
   spin  2
    eigenvalues: 
  0.399  0.420  0.527  0.531  0.531
    eigenvectors:
  0.000  1.000  0.000  0.000  0.000
  0.000  0.000  0.000  0.500  0.500
  0.000  0.000  0.000  0.500  0.500
  1.000  0.000  0.000  0.000  0.000
  0.000  0.000  1.000  0.000  0.000
    occupations:
  0.420  0.000  0.000  0.000  0.000
  0.000  0.531  0.000 -0.000  0.000
  0.000  0.000  0.531  0.000  0.000
  0.000 -0.000  0.000  0.399 -0.000
  0.000  0.000  0.000 -0.000  0.527
atomic mag. moment =     2.568088
atom   17   Tr[ns(na)] (up, down, total) =   4.96769  1.15742  6.12511
   spin  1
    eigenvalues: 
  0.992  0.992  0.992  0.995  0.996
    eigenvectors:
  1.000  0.000  0.000  0.000  0.000
  0.000  0.235  0.765  0.000  0.000
  0.000  0.765  0.235  0.000  0.000
  0.000  0.000  0.000  0.000  1.000
  0.000  0.000  0.000  1.000  0.000
    occupations:
  0.992 -0.000 -0.000  0.000  0.000
 -0.000  0.992 -0.000  0.000  0.000
 -0.000 -0.000  0.992  0.000  0.000
  0.000  0.000  0.000  0.996 -0.000
  0.000  0.000  0.000 -0.000  0.995
   spin  2
    eigenvalues: 
  0.198  0.198  0.216  0.248  0.297
    eigenvectors:
  0.000  0.000  1.000  0.000  0.000
  0.186  0.814  0.000  0.000  0.000
  0.814  0.186  0.000  0.000  0.000
  0.000  0.000  0.000  1.000  0.000
  0.000  0.000  0.000  0.000  1.000
    occupations:
  0.216 -0.000 -0.000  0.000  0.000
 -0.000  0.198 -0.000  0.000  0.000
 -0.000 -0.000  0.198  0.000  0.000
  0.000  0.000  0.000  0.248 -0.000
  0.000  0.000  0.000 -0.000  0.297
atomic mag. moment =     3.810264
atom   18   Tr[ns(na)] (up, down, total) =   4.96815  1.15719  6.12535
   spin  1
    eigenvalues: 
  0.992  0.993  0.993  0.995  0.996
    eigenvectors:
  1.000  0.000  0.000  0.000  0.000
  0.000  0.000  1.000  0.000  0.000
  0.000  1.000  0.000  0.000  0.000
  0.000  0.000  0.000  0.000  1.000
  0.000  0.000  0.000  1.000  0.000
    occupations:
  0.992 -0.000 -0.000 -0.000  0.000
 -0.000  0.993 -0.000  0.000  0.000
 -0.000 -0.000  0.993  0.000  0.000
 -0.000  0.000  0.000  0.996 -0.000
  0.000  0.000  0.000 -0.000  0.995
   spin  2
    eigenvalues: 
  0.198  0.198  0.216  0.248  0.297
    eigenvectors:
  0.000  0.000  1.000  0.000  0.000
  0.000  1.000  0.000  0.000  0.000
  1.000  0.000  0.000  0.000  0.000
  0.000  0.000  0.000  1.000  0.000
  0.000  0.000  0.000  0.000  1.000
    occupations:
  0.216 -0.000 -0.000 -0.000  0.000
 -0.000  0.198 -0.000  0.000  0.000
 -0.000 -0.000  0.198  0.000  0.000
 -0.000  0.000  0.000  0.248 -0.000
  0.000  0.000  0.000 -0.000  0.297
atomic mag. moment =     3.810961
atom   19   Tr[ns(na)] (up, down, total) =   4.96815  1.15719  6.12535
   spin  1
    eigenvalues: 
  0.992  0.993  0.993  0.995  0.996
    eigenvectors:
  1.000  0.000  0.000  0.000  0.000
  0.000  1.000  0.000  0.000  0.000
  0.000  0.000  1.000  0.000  0.000
  0.000  0.000  0.000  0.000  1.000
  0.000  0.000  0.000  1.000  0.000
    occupations:
  0.992 -0.000 -0.000  0.000  0.000
 -0.000  0.993 -0.000  0.000  0.000
 -0.000 -0.000  0.993  0.000  0.000
  0.000  0.000  0.000  0.996 -0.000
  0.000  0.000  0.000 -0.000  0.995
   spin  2
    eigenvalues: 
  0.198  0.198  0.216  0.248  0.297
    eigenvectors:
  0.000  0.000  1.000  0.000  0.000
  1.000  0.000  0.000  0.000  0.000
  0.000  1.000  0.000  0.000  0.000
  0.000  0.000  0.000  1.000  0.000
  0.000  0.000  0.000  0.000  1.000
    occupations:
  0.216 -0.000 -0.000  0.000  0.000
 -0.000  0.198 -0.000  0.000  0.000
 -0.000 -0.000  0.198  0.000  0.000
  0.000  0.000  0.000  0.248 -0.000
  0.000  0.000  0.000 -0.000  0.297
atomic mag. moment =     3.810961
atom   20   Tr[ns(na)] (up, down, total) =   4.96774  1.15799  6.12572
   spin  1
    eigenvalues: 
  0.992  0.993  0.993  0.995  0.996
    eigenvectors:
  1.000  0.000  0.000  0.000  0.000
  0.000  0.169  0.831  0.000  0.000
  0.000  0.831  0.169  0.000  0.000
  0.000  0.000  0.000  0.000  1.000
  0.000  0.000  0.000  1.000  0.000
    occupations:
  0.992 -0.000 -0.000  0.000  0.000
 -0.000  0.993 -0.000  0.000  0.000
 -0.000 -0.000  0.993  0.000  0.000
  0.000  0.000  0.000  0.996 -0.000
  0.000  0.000  0.000 -0.000  0.995
   spin  2
    eigenvalues: 
  0.198  0.198  0.216  0.248  0.298
    eigenvectors:
  0.000  0.000  1.000  0.000  0.000
  0.221  0.779  0.000  0.000  0.000
  0.779  0.221  0.000  0.000  0.000
  0.000  0.000  0.000  1.000  0.000
  0.000  0.000  0.000  0.000  1.000
    occupations:
  0.216 -0.000 -0.000  0.000  0.000
 -0.000  0.198 -0.000  0.000  0.000
 -0.000 -0.000  0.198  0.000  0.000
  0.000  0.000  0.000  0.248 -0.000
  0.000  0.000  0.000 -0.000  0.298
atomic mag. moment =     3.809751
N of occupied +U levels = 137.3701482
 --- exit write_ns ---

     negative rho (up, down):  0.000E+00 0.460E-03
 --- in v_hubbard ---
Hubbard energy    0.0000
 -------

     total cpu time spent up to now is      111.1 secs

     total energy              =   -6580.22269159 Ry
     Harris-Foulkes estimate   =   -6569.82897715 Ry
     estimated scf accuracy    <      31.68951796 Ry

     total magnetization       =    64.00 Bohr mag/cell
     absolute magnetization    =    68.81 Bohr mag/cell

     iteration #  2     ecut=    95.00 Ry     beta=0.50
     Davidson diagonalization with overlap
     ethr =  9.90E-03,  avg # of iterations =  1.0
 --- enter write_ns ---
 LDA+U parameters:
U( 1)     =  0.00000000
alpha( 1) =  0.00000000
atom    1   Tr[ns(na)] (up, down, total) =   4.97675  1.70280  6.67955
   spin  1
    eigenvalues: 
  0.994  0.995  0.995  0.996  0.997
    eigenvectors:
  1.000  0.000  0.000  0.000  0.000
  0.000  0.267  0.733  0.000  0.000
  0.000  0.733  0.267  0.000  0.000
  0.000  0.000  0.000  0.000  1.000
  0.000  0.000  0.000  1.000  0.000
    occupations:
  0.994 -0.000 -0.000  0.000  0.000
 -0.000  0.995 -0.000  0.000  0.000
 -0.000 -0.000  0.995  0.000  0.000
  0.000  0.000  0.000  0.997 -0.000
  0.000  0.000  0.000 -0.000  0.996
   spin  2
    eigenvalues: 
  0.298  0.298  0.320  0.356  0.430
    eigenvectors:
  0.000  0.000  1.000  0.000  0.000
  0.246  0.754  0.000  0.000  0.000
  0.754  0.246  0.000  0.000  0.000
  0.000  0.000  0.000  1.000  0.000
  0.000  0.000  0.000  0.000  1.000
    occupations:
  0.320 -0.000 -0.000  0.000  0.000
 -0.000  0.298 -0.000  0.000  0.000
 -0.000 -0.000  0.298  0.000  0.000
  0.000  0.000  0.000  0.356 -0.000
  0.000  0.000  0.000 -0.000  0.430
atomic mag. moment =     3.273950
atom    2   Tr[ns(na)] (up, down, total) =   4.97692  1.69944  6.67636
   spin  1
    eigenvalues: 
  0.994  0.995  0.995  0.996  0.997
    eigenvectors:
  1.000  0.000  0.000  0.000  0.000
  0.000  0.000  1.000  0.000  0.000
  0.000  1.000  0.000  0.000  0.000
  0.000  0.000  0.000  0.000  1.000
  0.000  0.000  0.000  1.000  0.000
    occupations:
  0.994 -0.000 -0.000 -0.000  0.000
 -0.000  0.995 -0.000  0.000  0.000
 -0.000 -0.000  0.995  0.000  0.000
 -0.000  0.000  0.000  0.997 -0.000
  0.000  0.000  0.000 -0.000  0.996
   spin  2
    eigenvalues: 
  0.297  0.297  0.320  0.356  0.429
    eigenvectors:
  0.000  0.000  1.000  0.000  0.000
  0.000  1.000  0.000  0.000  0.000
  1.000  0.000  0.000  0.000  0.000
  0.000  0.000  0.000  1.000  0.000
  0.000  0.000  0.000  0.000  1.000
    occupations:
  0.320 -0.000 -0.000 -0.000  0.000
 -0.000  0.297 -0.000  0.000  0.000
 -0.000 -0.000  0.297  0.000  0.000
 -0.000  0.000  0.000  0.356 -0.000
  0.000  0.000  0.000 -0.000  0.429
atomic mag. moment =     3.277480
atom    3   Tr[ns(na)] (up, down, total) =   4.97692  1.69944  6.67636
   spin  1
    eigenvalues: 
  0.994  0.995  0.995  0.996  0.997
    eigenvectors:
  1.000  0.000  0.000  0.000  0.000
  0.000  1.000  0.000  0.000  0.000
  0.000  0.000  1.000  0.000  0.000
  0.000  0.000  0.000  0.000  1.000
  0.000  0.000  0.000  1.000  0.000
    occupations:
  0.994 -0.000 -0.000  0.000  0.000
 -0.000  0.995 -0.000  0.000  0.000
 -0.000 -0.000  0.995  0.000  0.000
  0.000  0.000  0.000  0.997 -0.000
  0.000  0.000  0.000 -0.000  0.996
   spin  2
    eigenvalues: 
  0.297  0.297  0.320  0.356  0.429
    eigenvectors:
  0.000  0.000  1.000  0.000  0.000
  1.000  0.000  0.000  0.000  0.000
  0.000  1.000  0.000  0.000  0.000
  0.000  0.000  0.000  1.000  0.000
  0.000  0.000  0.000  0.000  1.000
    occupations:
  0.320 -0.000 -0.000  0.000  0.000
 -0.000  0.297 -0.000  0.000  0.000
 -0.000 -0.000  0.297  0.000  0.000
  0.000  0.000  0.000  0.356 -0.000
  0.000  0.000  0.000 -0.000  0.429
atomic mag. moment =     3.277480
atom    4   Tr[ns(na)] (up, down, total) =   4.97674  1.70304  6.67978
   spin  1
    eigenvalues: 
  0.994  0.995  0.995  0.996  0.996
    eigenvectors:
  1.000  0.000  0.000  0.000  0.000
  0.000  0.226  0.774  0.000  0.000
  0.000  0.774  0.226  0.000  0.000
  0.000  0.000  0.000  0.000  1.000
  0.000  0.000  0.000  1.000  0.000
    occupations:
  0.994 -0.000 -0.000  0.000  0.000
 -0.000  0.995 -0.000  0.000  0.000
 -0.000 -0.000  0.995  0.000  0.000
  0.000  0.000  0.000  0.996 -0.000
  0.000  0.000  0.000 -0.000  0.996
   spin  2
    eigenvalues: 
  0.298  0.298  0.320  0.356  0.430
    eigenvectors:
  0.000  0.000  1.000  0.000  0.000
  0.197  0.803  0.000  0.000  0.000
  0.803  0.197  0.000  0.000  0.000
  0.000  0.000  0.000  1.000  0.000
  0.000  0.000  0.000  0.000  1.000
    occupations:
  0.320 -0.000 -0.000  0.000  0.000
 -0.000  0.298 -0.000  0.000  0.000
 -0.000 -0.000  0.298  0.000  0.000
  0.000  0.000  0.000  0.356 -0.000
  0.000  0.000  0.000 -0.000  0.430
atomic mag. moment =     3.273698
atom    5   Tr[ns(na)] (up, down, total) =   4.95085  2.15620  7.10705
   spin  1
    eigenvalues: 
  0.989  0.989  0.990  0.991  0.991
    eigenvectors:
  0.000  0.000  0.000  0.003  0.997
  0.500  0.500  0.000  0.000  0.000
  0.500  0.500  0.000  0.000  0.000
  0.000  0.000  1.000  0.000  0.000
  0.000  0.000  0.000  0.997  0.003
    occupations:
  0.991 -0.000 -0.000  0.000 -0.000
 -0.000  0.989 -0.000  0.000  0.000
 -0.000 -0.000  0.989 -0.000  0.000
  0.000  0.000 -0.000  0.990 -0.000
 -0.000  0.000  0.000 -0.000  0.991
   spin  2
    eigenvalues: 
  0.344  0.364  0.482  0.483  0.483
    eigenvectors:
  0.000  1.000  0.000  0.000  0.000
  0.000  0.000  0.002  0.500  0.498
  0.000  0.000  0.002  0.500  0.498
  1.000  0.000  0.000  0.000  0.000
  0.000  0.000  0.996  0.000  0.004
    occupations:
  0.364 -0.000 -0.000  0.000  0.000
 -0.000  0.483  0.000 -0.000 -0.000
 -0.000  0.000  0.483  0.000 -0.000
  0.000 -0.000  0.000  0.344 -0.000
  0.000 -0.000 -0.000 -0.000  0.482
atomic mag. moment =     2.794646
atom    6   Tr[ns(na)] (up, down, total) =   4.95085  2.15620  7.10705
   spin  1
    eigenvalues: 
  0.989  0.989  0.990  0.991  0.991
    eigenvectors:
  0.000  0.000  0.000  0.003  0.997
  0.500  0.500  0.000  0.000  0.000
  0.500  0.500  0.000  0.000  0.000
  0.000  0.000  1.000  0.000  0.000
  0.000  0.000  0.000  0.997  0.003
    occupations:
  0.991 -0.000  0.000  0.000  0.000
 -0.000  0.989  0.000  0.000 -0.000
  0.000  0.000  0.989  0.000  0.000
  0.000  0.000  0.000  0.990 -0.000
  0.000 -0.000  0.000 -0.000  0.991
   spin  2
    eigenvalues: 
  0.344  0.364  0.482  0.483  0.483
    eigenvectors:
  0.000  1.000  0.000  0.000  0.000
  0.000  0.000  0.002  0.500  0.498
  0.000  0.000  0.002  0.500  0.498
  1.000  0.000  0.000  0.000  0.000
  0.000  0.000  0.996  0.000  0.004
    occupations:
  0.364 -0.000  0.000  0.000 -0.000
 -0.000  0.483 -0.000 -0.000  0.000
  0.000 -0.000  0.483 -0.000 -0.000
  0.000 -0.000 -0.000  0.344 -0.000
 -0.000  0.000 -0.000 -0.000  0.482
atomic mag. moment =     2.794646
atom    7   Tr[ns(na)] (up, down, total) =   4.95085  2.15620  7.10705
   spin  1
    eigenvalues: 
  0.989  0.989  0.990  0.991  0.991
    eigenvectors:
  0.000  0.000  0.000  0.003  0.997
  0.500  0.500  0.000  0.000  0.000
  0.500  0.500  0.000  0.000  0.000
  0.000  0.000  1.000  0.000  0.000
  0.000  0.000  0.000  0.997  0.003
    occupations:
  0.991  0.000 -0.000  0.000  0.000
  0.000  0.989  0.000 -0.000  0.000
 -0.000  0.000  0.989 -0.000 -0.000
  0.000 -0.000 -0.000  0.990 -0.000
  0.000  0.000 -0.000 -0.000  0.991
   spin  2
    eigenvalues: 
  0.344  0.364  0.482  0.483  0.483
    eigenvectors:
  0.000  1.000  0.000  0.000  0.000
  0.000  0.000  0.002  0.500  0.498
  0.000  0.000  0.002  0.500  0.498
  1.000  0.000  0.000  0.000  0.000
  0.000  0.000  0.996  0.000  0.004
    occupations:
  0.364  0.000 -0.000  0.000 -0.000
  0.000  0.483 -0.000  0.000 -0.000
 -0.000 -0.000  0.483  0.000  0.000
  0.000  0.000  0.000  0.344 -0.000
 -0.000 -0.000  0.000 -0.000  0.482
atomic mag. moment =     2.794646
atom    8   Tr[ns(na)] (up, down, total) =   4.95085  2.15620  7.10705
   spin  1
    eigenvalues: 
  0.989  0.989  0.990  0.991  0.991
    eigenvectors:
  0.000  0.000  0.000  0.003  0.997
  0.500  0.500  0.000  0.000  0.000
  0.500  0.500  0.000  0.000  0.000
  0.000  0.000  1.000  0.000  0.000
  0.000  0.000  0.000  0.997  0.003
    occupations:
  0.991  0.000  0.000  0.000 -0.000
  0.000  0.989 -0.000 -0.000 -0.000
  0.000 -0.000  0.989  0.000 -0.000
  0.000 -0.000  0.000  0.990 -0.000
 -0.000 -0.000 -0.000 -0.000  0.991
   spin  2
    eigenvalues: 
  0.344  0.364  0.482  0.483  0.483
    eigenvectors:
  0.000  1.000  0.000  0.000  0.000
  0.000  0.000  0.002  0.500  0.498
  0.000  0.000  0.002  0.500  0.498
  1.000  0.000  0.000  0.000  0.000
  0.000  0.000  0.996  0.000  0.004
    occupations:
  0.364  0.000  0.000  0.000  0.000
  0.000  0.483  0.000  0.000  0.000
  0.000  0.000  0.483 -0.000  0.000
  0.000  0.000 -0.000  0.344 -0.000
  0.000  0.000  0.000 -0.000  0.482
atomic mag. moment =     2.794646
atom    9   Tr[ns(na)] (up, down, total) =   4.95287  2.17039  7.12326
   spin  1
    eigenvalues: 
  0.989  0.989  0.989  0.991  0.994
    eigenvectors:
  0.000  0.000  0.000  0.000  1.000
  0.189  0.811  0.000  0.000  0.000
  0.811  0.189  0.000  0.000  0.000
  0.000  0.000  0.000  1.000  0.000
  0.000  0.000  1.000  0.000  0.000
    occupations:
  0.994 -0.000 -0.000  0.000  0.000
 -0.000  0.989 -0.000  0.000  0.000
 -0.000 -0.000  0.989  0.000  0.000
  0.000  0.000  0.000  0.991 -0.000
  0.000  0.000  0.000 -0.000  0.989
   spin  2
    eigenvalues: 
  0.343  0.390  0.476  0.481  0.481
    eigenvectors:
  1.000  0.000  0.000  0.000  0.000
  0.000  0.000  0.000  0.256  0.744
  0.000  0.000  0.000  0.744  0.256
  0.000  1.000  0.000  0.000  0.000
  0.000  0.000  1.000  0.000  0.000
    occupations:
  0.343 -0.000 -0.000  0.000  0.000
 -0.000  0.481 -0.000  0.000  0.000
 -0.000 -0.000  0.481  0.000  0.000
  0.000  0.000  0.000  0.390 -0.000
  0.000  0.000  0.000 -0.000  0.476
atomic mag. moment =     2.782476
atom   10   Tr[ns(na)] (up, down, total) =   4.95267  2.16592  7.11859
   spin  1
    eigenvalues: 
  0.989  0.989  0.989  0.991  0.994
    eigenvectors:
  0.000  0.000  0.000  0.000  1.000
  0.000  1.000  0.000  0.000  0.000
  1.000  0.000  0.000  0.000  0.000
  0.000  0.000  0.000  1.000  0.000
  0.000  0.000  1.000  0.000  0.000
    occupations:
  0.994 -0.000 -0.000  0.000  0.000
 -0.000  0.989 -0.000  0.000  0.000
 -0.000 -0.000  0.989  0.000  0.000
  0.000  0.000  0.000  0.991 -0.000
  0.000  0.000  0.000 -0.000  0.989
   spin  2
    eigenvalues: 
  0.342  0.389  0.475  0.480  0.480
    eigenvectors:
  1.000  0.000  0.000  0.000  0.000
  0.000  0.000  0.000  1.000  0.000
  0.000  0.000  0.000  0.000  1.000
  0.000  1.000  0.000  0.000  0.000
  0.000  0.000  1.000  0.000  0.000
    occupations:
  0.342 -0.000 -0.000 -0.000  0.000
 -0.000  0.480 -0.000  0.000  0.000
 -0.000 -0.000  0.480  0.000  0.000
 -0.000  0.000  0.000  0.389 -0.000
  0.000  0.000  0.000 -0.000  0.475
atomic mag. moment =     2.786750
atom   11   Tr[ns(na)] (up, down, total) =   4.95267  2.16592  7.11859
   spin  1
    eigenvalues: 
  0.989  0.989  0.989  0.991  0.994
    eigenvectors:
  0.000  0.000  0.000  0.000  1.000
  1.000  0.000  0.000  0.000  0.000
  0.000  1.000  0.000  0.000  0.000
  0.000  0.000  0.000  1.000  0.000
  0.000  0.000  1.000  0.000  0.000
    occupations:
  0.994 -0.000 -0.000 -0.000  0.000
 -0.000  0.989 -0.000  0.000  0.000
 -0.000 -0.000  0.989  0.000  0.000
 -0.000  0.000  0.000  0.991 -0.000
  0.000  0.000  0.000 -0.000  0.989
   spin  2
    eigenvalues: 
  0.342  0.389  0.475  0.480  0.480
    eigenvectors:
  1.000  0.000  0.000  0.000  0.000
  0.000  0.000  0.000  0.000  1.000
  0.000  0.000  0.000  1.000  0.000
  0.000  1.000  0.000  0.000  0.000
  0.000  0.000  1.000  0.000  0.000
    occupations:
  0.342 -0.000 -0.000  0.000  0.000
 -0.000  0.480 -0.000  0.000  0.000
 -0.000 -0.000  0.480  0.000  0.000
  0.000  0.000  0.000  0.389 -0.000
  0.000  0.000  0.000 -0.000  0.475
atomic mag. moment =     2.786750
atom   12   Tr[ns(na)] (up, down, total) =   4.95287  2.16933  7.12220
   spin  1
    eigenvalues: 
  0.989  0.989  0.989  0.991  0.994
    eigenvectors:
  0.000  0.000  0.000  0.000  1.000
  0.205  0.795  0.000  0.000  0.000
  0.795  0.205  0.000  0.000  0.000
  0.000  0.000  0.000  1.000  0.000
  0.000  0.000  1.000  0.000  0.000
    occupations:
  0.994 -0.000 -0.000  0.000  0.000
 -0.000  0.989 -0.000  0.000  0.000
 -0.000 -0.000  0.989  0.000  0.000
  0.000  0.000  0.000  0.991 -0.000
  0.000  0.000  0.000 -0.000  0.989
   spin  2
    eigenvalues: 
  0.343  0.389  0.475  0.481  0.481
    eigenvectors:
  1.000  0.000  0.000  0.000  0.000
  0.000  0.000  0.000  0.245  0.755
  0.000  0.000  0.000  0.755  0.245
  0.000  1.000  0.000  0.000  0.000
  0.000  0.000  1.000  0.000  0.000
    occupations:
  0.343 -0.000 -0.000  0.000  0.000
 -0.000  0.481 -0.000  0.000  0.000
 -0.000 -0.000  0.481  0.000  0.000
  0.000  0.000  0.000  0.389 -0.000
  0.000  0.000  0.000 -0.000  0.475
atomic mag. moment =     2.783539
atom   13   Tr[ns(na)] (up, down, total) =   4.95088  2.15931  7.11019
   spin  1
    eigenvalues: 
  0.989  0.989  0.990  0.991  0.992
    eigenvectors:
  0.000  0.000  0.000  0.001  0.999
  0.500  0.500  0.000  0.000  0.000
  0.500  0.500  0.000  0.000  0.000
  0.000  0.001  0.999  0.000  0.000
  0.000  0.000  0.000  0.999  0.001
    occupations:
  0.992  0.000  0.000  0.000 -0.000
  0.000  0.989 -0.000 -0.000  0.000
  0.000 -0.000  0.989  0.000  0.000
  0.000 -0.000  0.000  0.990 -0.000
 -0.000  0.000  0.000 -0.000  0.991
   spin  2
    eigenvalues: 
  0.344  0.364  0.484  0.484  0.484
    eigenvectors:
  0.000  1.000  0.000  0.000  0.000
  0.000  0.000  0.500  0.042  0.458
  0.000  0.000  0.500  0.042  0.458
  1.000  0.000  0.000  0.000  0.000
  0.000  0.000  0.000  0.915  0.085
    occupations:
  0.364 -0.000 -0.000  0.000  0.000
 -0.000  0.484  0.000  0.000 -0.000
 -0.000  0.000  0.484 -0.000 -0.000
  0.000  0.000 -0.000  0.344 -0.000
  0.000 -0.000 -0.000 -0.000  0.484
atomic mag. moment =     2.791566
atom   14   Tr[ns(na)] (up, down, total) =   4.95088  2.15931  7.11019
   spin  1
    eigenvalues: 
  0.989  0.989  0.990  0.991  0.992
    eigenvectors:
  0.000  0.000  0.000  0.001  0.999
  0.500  0.500  0.000  0.000  0.000
  0.500  0.500  0.000  0.000  0.000
  0.000  0.001  0.999  0.000  0.000
  0.000  0.000  0.000  0.999  0.001
    occupations:
  0.992  0.000 -0.000  0.000  0.000
  0.000  0.989  0.000 -0.000 -0.000
 -0.000  0.000  0.989 -0.000  0.000
  0.000 -0.000 -0.000  0.990 -0.000
  0.000 -0.000  0.000 -0.000  0.991
   spin  2
    eigenvalues: 
  0.344  0.364  0.484  0.484  0.484
    eigenvectors:
  0.000  1.000  0.000  0.000  0.000
  0.000  0.000  0.500  0.042  0.458
  0.000  0.000  0.500  0.042  0.458
  1.000  0.000  0.000  0.000  0.000
  0.000  0.000  0.000  0.915  0.085
    occupations:
  0.364 -0.000  0.000  0.000 -0.000
 -0.000  0.484 -0.000  0.000  0.000
  0.000 -0.000  0.484  0.000 -0.000
  0.000  0.000  0.000  0.344 -0.000
 -0.000  0.000 -0.000 -0.000  0.484
atomic mag. moment =     2.791566
atom   15   Tr[ns(na)] (up, down, total) =   4.95088  2.15931  7.11019
   spin  1
    eigenvalues: 
  0.989  0.989  0.990  0.991  0.992
    eigenvectors:
  0.000  0.000  0.000  0.001  0.999
  0.500  0.500  0.000  0.000  0.000
  0.500  0.500  0.000  0.000  0.000
  0.000  0.001  0.999  0.000  0.000
  0.000  0.000  0.000  0.999  0.001
    occupations:
  0.992 -0.000  0.000  0.000  0.000
 -0.000  0.989  0.000  0.000  0.000
  0.000  0.000  0.989  0.000 -0.000
  0.000  0.000  0.000  0.990 -0.000
  0.000  0.000 -0.000 -0.000  0.991
   spin  2
    eigenvalues: 
  0.344  0.364  0.484  0.484  0.484
    eigenvectors:
  0.000  1.000  0.000  0.000  0.000
  0.000  0.000  0.500  0.042  0.458
  0.000  0.000  0.500  0.042  0.458
  1.000  0.000  0.000  0.000  0.000
  0.000  0.000  0.000  0.915  0.085
    occupations:
  0.364  0.000 -0.000  0.000 -0.000
  0.000  0.484 -0.000 -0.000 -0.000
 -0.000 -0.000  0.484 -0.000  0.000
  0.000 -0.000 -0.000  0.344 -0.000
 -0.000 -0.000  0.000 -0.000  0.484
atomic mag. moment =     2.791566
atom   16   Tr[ns(na)] (up, down, total) =   4.95088  2.15931  7.11019
   spin  1
    eigenvalues: 
  0.989  0.989  0.990  0.991  0.992
    eigenvectors:
  0.000  0.000  0.000  0.001  0.999
  0.500  0.500  0.000  0.000  0.000
  0.500  0.500  0.000  0.000  0.000
  0.000  0.001  0.999  0.000  0.000
  0.000  0.000  0.000  0.999  0.001
    occupations:
  0.992 -0.000 -0.000  0.000 -0.000
 -0.000  0.989 -0.000  0.000 -0.000
 -0.000 -0.000  0.989 -0.000 -0.000
  0.000  0.000 -0.000  0.990 -0.000
 -0.000 -0.000 -0.000 -0.000  0.991
   spin  2
    eigenvalues: 
  0.344  0.364  0.484  0.484  0.484
    eigenvectors:
  0.000  1.000  0.000  0.000  0.000
  0.000  0.000  0.500  0.042  0.458
  0.000  0.000  0.500  0.042  0.458
  1.000  0.000  0.000  0.000  0.000
  0.000  0.000  0.000  0.915  0.085
    occupations:
  0.364  0.000  0.000  0.000  0.000
  0.000  0.484  0.000 -0.000  0.000
  0.000  0.000  0.484  0.000  0.000
  0.000 -0.000  0.000  0.344 -0.000
  0.000  0.000  0.000 -0.000  0.484
atomic mag. moment =     2.791566
atom   17   Tr[ns(na)] (up, down, total) =   4.97651  1.71964  6.69616
   spin  1
    eigenvalues: 
  0.994  0.995  0.995  0.996  0.996
    eigenvectors:
  1.000  0.000  0.000  0.000  0.000
  0.000  0.168  0.832  0.000  0.000
  0.000  0.832  0.168  0.000  0.000
  0.000  0.000  0.000  0.000  1.000
  0.000  0.000  0.000  1.000  0.000
    occupations:
  0.994 -0.000 -0.000  0.000  0.000
 -0.000  0.995 -0.000  0.000  0.000
 -0.000 -0.000  0.995  0.000  0.000
  0.000  0.000  0.000  0.996 -0.000
  0.000  0.000  0.000 -0.000  0.996
   spin  2
    eigenvalues: 
  0.301  0.301  0.322  0.357  0.439
    eigenvectors:
  0.000  0.000  1.000  0.000  0.000
  0.130  0.870  0.000  0.000  0.000
  0.870  0.130  0.000  0.000  0.000
  0.000  0.000  0.000  1.000  0.000
  0.000  0.000  0.000  0.000  1.000
    occupations:
  0.322 -0.000 -0.000  0.000  0.000
 -0.000  0.301 -0.000  0.000  0.000
 -0.000 -0.000  0.301  0.000  0.000
  0.000  0.000  0.000  0.357 -0.000
  0.000  0.000  0.000 -0.000  0.439
atomic mag. moment =     3.256871
atom   18   Tr[ns(na)] (up, down, total) =   4.97675  1.71764  6.69439
   spin  1
    eigenvalues: 
  0.994  0.995  0.995  0.996  0.996
    eigenvectors:
  1.000  0.000  0.000  0.000  0.000
  0.000  0.000  1.000  0.000  0.000
  0.000  1.000  0.000  0.000  0.000
  0.000  0.000  0.000  0.000  1.000
  0.000  0.000  0.000  1.000  0.000
    occupations:
  0.994 -0.000 -0.000  0.000  0.000
 -0.000  0.995 -0.000  0.000  0.000
 -0.000 -0.000  0.995  0.000  0.000
  0.000  0.000  0.000  0.996 -0.000
  0.000  0.000  0.000 -0.000  0.996
   spin  2
    eigenvalues: 
  0.301  0.301  0.322  0.357  0.438
    eigenvectors:
  0.000  0.000  1.000  0.000  0.000
  0.000  1.000  0.000  0.000  0.000
  1.000  0.000  0.000  0.000  0.000
  0.000  0.000  0.000  1.000  0.000
  0.000  0.000  0.000  0.000  1.000
    occupations:
  0.322 -0.000 -0.000 -0.000  0.000
 -0.000  0.301 -0.000  0.000  0.000
 -0.000 -0.000  0.301  0.000  0.000
 -0.000  0.000  0.000  0.357 -0.000
  0.000  0.000  0.000 -0.000  0.438
atomic mag. moment =     3.259113
atom   19   Tr[ns(na)] (up, down, total) =   4.97675  1.71764  6.69439
   spin  1
    eigenvalues: 
  0.994  0.995  0.995  0.996  0.996
    eigenvectors:
  1.000  0.000  0.000  0.000  0.000
  0.000  1.000  0.000  0.000  0.000
  0.000  0.000  1.000  0.000  0.000
  0.000  0.000  0.000  0.000  1.000
  0.000  0.000  0.000  1.000  0.000
    occupations:
  0.994 -0.000 -0.000 -0.000  0.000
 -0.000  0.995 -0.000  0.000  0.000
 -0.000 -0.000  0.995  0.000  0.000
 -0.000  0.000  0.000  0.996 -0.000
  0.000  0.000  0.000 -0.000  0.996
   spin  2
    eigenvalues: 
  0.301  0.301  0.322  0.357  0.438
    eigenvectors:
  0.000  0.000  1.000  0.000  0.000
  1.000  0.000  0.000  0.000  0.000
  0.000  1.000  0.000  0.000  0.000
  0.000  0.000  0.000  1.000  0.000
  0.000  0.000  0.000  0.000  1.000
    occupations:
  0.322 -0.000 -0.000  0.000  0.000
 -0.000  0.301 -0.000  0.000  0.000
 -0.000 -0.000  0.301  0.000  0.000
  0.000  0.000  0.000  0.357 -0.000
  0.000  0.000  0.000 -0.000  0.438
atomic mag. moment =     3.259113
atom   20   Tr[ns(na)] (up, down, total) =   4.97656  1.72028  6.69684
   spin  1
    eigenvalues: 
  0.994  0.995  0.995  0.996  0.996
    eigenvectors:
  1.000  0.000  0.000  0.000  0.000
  0.000  0.267  0.733  0.000  0.000
  0.000  0.733  0.267  0.000  0.000
  0.000  0.000  0.000  0.000  1.000
  0.000  0.000  0.000  1.000  0.000
    occupations:
  0.994 -0.000 -0.000  0.000  0.000
 -0.000  0.995 -0.000  0.000  0.000
 -0.000 -0.000  0.995  0.000  0.000
  0.000  0.000  0.000  0.996 -0.000
  0.000  0.000  0.000 -0.000  0.996
   spin  2
    eigenvalues: 
  0.301  0.301  0.322  0.357  0.439
    eigenvectors:
  0.000  0.000  1.000  0.000  0.000
  0.220  0.780  0.000  0.000  0.000
  0.780  0.220  0.000  0.000  0.000
  0.000  0.000  0.000  1.000  0.000
  0.000  0.000  0.000  0.000  1.000
    occupations:
  0.322 -0.000 -0.000  0.000  0.000
 -0.000  0.301 -0.000  0.000  0.000
 -0.000 -0.000  0.301  0.000  0.000
  0.000  0.000  0.000  0.357 -0.000
  0.000  0.000  0.000 -0.000  0.439
atomic mag. moment =     3.256275
N of occupied +U levels = 138.8454266
 --- exit write_ns ---

     negative rho (up, down):  0.000E+00 0.203E-02
 --- in v_hubbard ---
Hubbard energy    0.0000
 -------

     total cpu time spent up to now is      169.6 secs

     total energy              =   -6583.90754617 Ry
     Harris-Foulkes estimate   =   -6580.67349479 Ry
     estimated scf accuracy    <       8.76756372 Ry

     total magnetization       =    62.62 Bohr mag/cell
     absolute magnetization    =    66.33 Bohr mag/cell

     iteration #  3     ecut=    95.00 Ry     beta=0.50
     Davidson diagonalization with overlap
     ethr =  2.74E-03,  avg # of iterations =  3.3
 --- enter write_ns ---
 LDA+U parameters:
U( 1)     =  0.00000000
alpha( 1) =  0.00000000
atom    1   Tr[ns(na)] (up, down, total) =   4.96239  2.02947  6.99186
   spin  1
    eigenvalues: 
  0.990  0.990  0.994  0.994  0.995
    eigenvectors:
  0.000  0.000  0.000  0.000  1.000
  0.000  0.000  0.268  0.732  0.000
  0.000  0.000  0.732  0.268  0.000
  0.000  1.000  0.000  0.000  0.000
  1.000  0.000  0.000  0.000  0.000
    occupations:
  0.995 -0.000 -0.000  0.000  0.000
 -0.000  0.994 -0.000  0.000  0.000
 -0.000 -0.000  0.994  0.000  0.000
  0.000  0.000  0.000  0.990 -0.000
  0.000  0.000  0.000 -0.000  0.990
   spin  2
    eigenvalues: 
  0.360  0.378  0.378  0.403  0.511
    eigenvectors:
  1.000  0.000  0.000  0.000  0.000
  0.000  0.233  0.767  0.000  0.000
  0.000  0.767  0.233  0.000  0.000
  0.000  0.000  0.000  1.000  0.000
  0.000  0.000  0.000  0.000  1.000
    occupations:
  0.360 -0.000 -0.000  0.000  0.000
 -0.000  0.378 -0.000  0.000  0.000
 -0.000 -0.000  0.378  0.000  0.000
  0.000  0.000  0.000  0.403 -0.000
  0.000  0.000  0.000 -0.000  0.511
atomic mag. moment =     2.932917
atom    2   Tr[ns(na)] (up, down, total) =   4.96270  2.03521  6.99791
   spin  1
    eigenvalues: 
  0.990  0.990  0.994  0.994  0.995
    eigenvectors:
  0.000  0.000  0.000  0.000  1.000
  0.000  0.000  1.000  0.000  0.000
  0.000  0.000  0.000  1.000  0.000
  0.000  1.000  0.000  0.000  0.000
  1.000  0.000  0.000  0.000  0.000
    occupations:
  0.995 -0.000 -0.000 -0.000  0.000
 -0.000  0.994 -0.000  0.000  0.000
[...]
     1.0829   1.0829   1.0828   1.0828   0.1554   0.1554   0.1554   0.1554
     0.1313   0.1313   0.1313   0.1313   0.1200   0.1200   0.1200   0.1200
     0.1091   0.1091   0.1091   0.1091   0.0008   0.0008   0.0008   0.0008
     0.0001   0.0001   0.0001   0.0001   0.0000   0.0000   0.0000   0.0000
     0.0000   0.0000   0.0000   0.0000   0.0000   0.0000   0.0000   0.0000
     0.0000   0.0000   0.0000   0.0000   0.0000   0.0000   0.0000   0.0000
     0.0000   0.0000   0.0000   0.0000   0.0000   0.0000   0.0000   0.0000
     0.0000   0.0000   0.0000   0.0000   0.0000   0.0000   0.0000   0.0000

     the Fermi energy is     5.0286 ev

!    total energy              =   -6584.66668153 Ry
     Harris-Foulkes estimate   =   -6584.66668153 Ry
     estimated scf accuracy    <          4.5E-09 Ry

     total all-electron energy =    -50910.597392 Ry

     The total energy is the sum of the following terms:

     one-electron contribution =  -25983.38861453 Ry
     hartree contribution      =   13046.63205965 Ry
     xc contribution           =    -696.25203498 Ry
     ewald contribution        =    8571.22756475 Ry
     Hubbard energy            =       0.00000000 Ry
     one-center paw contrib.   =   -1522.97981632 Ry
     smearing contrib. (-TS)   =       0.09415991 Ry

     total magnetization       =    51.91 Bohr mag/cell
     absolute magnetization    =    54.11 Bohr mag/cell

     convergence has been achieved in  24 iterations

     Forces acting on atoms (Ry/au):


     negative rho (up, down):  0.520E-04 0.137E-02
     atom    1 type  1   force =     0.00000000    0.00000000    0.00369048
     atom    2 type  1   force =     0.00000000    0.00000000    0.00366820
     atom    3 type  1   force =     0.00000000    0.00000000    0.00366820
     atom    4 type  1   force =     0.00000000    0.00000000    0.00366780
     atom    5 type  1   force =    -0.00000115   -0.00000115   -0.00658001
     atom    6 type  1   force =    -0.00000115    0.00000115   -0.00658001
     atom    7 type  1   force =     0.00000115   -0.00000115   -0.00658001
     atom    8 type  1   force =     0.00000115    0.00000115   -0.00658001
     atom    9 type  1   force =     0.00000000    0.00000000    0.00289423
     atom   10 type  1   force =     0.00000000    0.00000000    0.00288979
     atom   11 type  1   force =     0.00000000    0.00000000    0.00288979
     atom   12 type  1   force =     0.00000000    0.00000000    0.00289065
     atom   13 type  1   force =    -0.00000441   -0.00000441   -0.00002065
     atom   14 type  1   force =    -0.00000441    0.00000441   -0.00002065
     atom   15 type  1   force =     0.00000441   -0.00000441   -0.00002065
     atom   16 type  1   force =     0.00000441    0.00000441   -0.00002065
     atom   17 type  1   force =     0.00000000    0.00000000    0.00003726
     atom   18 type  1   force =     0.00000000    0.00000000    0.00003279
     atom   19 type  1   force =     0.00000000    0.00000000    0.00003279
     atom   20 type  1   force =     0.00000000    0.00000000    0.00004065
     The non-local contrib.  to forces
     atom    1 type  1   force =     0.00000000    0.00000000   -0.38987901
     atom    2 type  1   force =     0.00000000    0.00000000   -0.38990274
     atom    3 type  1   force =     0.00000000    0.00000000   -0.38990274
     atom    4 type  1   force =     0.00000000    0.00000000   -0.38990331
     atom    5 type  1   force =    -0.00000094   -0.00000094   -0.03229944
     atom    6 type  1   force =    -0.00000094    0.00000094   -0.03229944
     atom    7 type  1   force =     0.00000094   -0.00000094   -0.03229944
     atom    8 type  1   force =     0.00000094    0.00000094   -0.03229944
     atom    9 type  1   force =     0.00000000    0.00000000   -0.00253986
     atom   10 type  1   force =     0.00000000    0.00000000   -0.00254372
     atom   11 type  1   force =     0.00000000    0.00000000   -0.00254372
     atom   12 type  1   force =     0.00000000    0.00000000   -0.00254032
     atom   13 type  1   force =    -0.00000501   -0.00000501    0.03477810
     atom   14 type  1   force =    -0.00000501    0.00000501    0.03477810
     atom   15 type  1   force =     0.00000501   -0.00000501    0.03477810
     atom   16 type  1   force =     0.00000501    0.00000501    0.03477810
     atom   17 type  1   force =     0.00000000    0.00000000    0.38434512
     atom   18 type  1   force =     0.00000000    0.00000000    0.38433734
     atom   19 type  1   force =     0.00000000    0.00000000    0.38433734
     atom   20 type  1   force =     0.00000000    0.00000000    0.38436144
     The ionic contribution  to forces
     atom    1 type  1   force =    -0.00004302   -0.00004302 -259.12065514
     atom    2 type  1   force =    -0.00004302    0.00005778 -259.12062183
     atom    3 type  1   force =     0.00005778   -0.00004302 -259.12062183
     atom    4 type  1   force =     0.00005778    0.00005778 -259.12058568
     atom    5 type  1   force =     0.00002350    0.00002350 -136.89091624
     atom    6 type  1   force =     0.00002350   -0.00005297 -136.89091374
     atom    7 type  1   force =    -0.00005297    0.00002350 -136.89091374
     atom    8 type  1   force =    -0.00005297   -0.00005297 -136.89091125
     atom    9 type  1   force =    -0.00004837   -0.00004837   -0.27746711
     atom   10 type  1   force =    -0.00004837    0.00007739   -0.27765937
     atom   11 type  1   force =     0.00007739   -0.00004837   -0.27765937
     atom   12 type  1   force =     0.00007739    0.00007739   -0.27760554
     atom   13 type  1   force =    -0.00001662   -0.00001662  137.15482029
     atom   14 type  1   force =    -0.00001662   -0.00001295  137.15481866
     atom   15 type  1   force =    -0.00001295   -0.00001662  137.15481866
     atom   16 type  1   force =    -0.00001295   -0.00001295  137.15481702
     atom   17 type  1   force =    -0.00004304   -0.00004304  259.13409057
     atom   18 type  1   force =    -0.00004304    0.00005831  259.13404920
     atom   19 type  1   force =     0.00005831   -0.00004304  259.13404920
     atom   20 type  1   force =     0.00005831    0.00005831  259.13506723
     The local contribution  to forces
     atom    1 type  1   force =     0.00000000    0.00000000  259.52700747
     atom    2 type  1   force =     0.00000000    0.00038284  259.52696768
     atom    3 type  1   force =     0.00038284    0.00000000  259.52696768
     atom    4 type  1   force =     0.00038284    0.00038284  259.52692091
     atom    5 type  1   force =    -0.00004490   -0.00004490  136.91701592
     atom    6 type  1   force =    -0.00004490    0.00004490  136.91701592
     atom    7 type  1   force =     0.00004490   -0.00004490  136.91701592
     atom    8 type  1   force =     0.00004490    0.00004490  136.91701592
     atom    9 type  1   force =     0.00000000    0.00000000    0.28273735
     atom   10 type  1   force =     0.00000000    0.00036940    0.28291552
     atom   11 type  1   force =     0.00036940    0.00000000    0.28291552
     atom   12 type  1   force =     0.00036940    0.00036940    0.28286307
     atom   13 type  1   force =    -0.00001225   -0.00001225 -137.18947555
     atom   14 type  1   force =    -0.00001225    0.00001225 -137.18947555
     atom   15 type  1   force =     0.00001225   -0.00001225 -137.18947555
     atom   16 type  1   force =     0.00001225    0.00001225 -137.18947555
     atom   17 type  1   force =     0.00000000    0.00000000 -259.53140060
     atom   18 type  1   force =     0.00000000    0.00038235 -259.53133882
     atom   19 type  1   force =     0.00038235    0.00000000 -259.53133882
     atom   20 type  1   force =     0.00038235    0.00038235 -259.53237208
     The core correction contribution to forces
     atom    1 type  1   force =    -0.00000000   -0.00000000   -0.01275977
     atom    2 type  1   force =    -0.00000000   -0.00001357   -0.01275992
     atom    3 type  1   force =    -0.00001357   -0.00000000   -0.01275992
     atom    4 type  1   force =    -0.00001357   -0.00001357   -0.01275983
     atom    5 type  1   force =     0.00000002    0.00000002   -0.00034157
     atom    6 type  1   force =     0.00000002   -0.00000001   -0.00034157
     atom    7 type  1   force =    -0.00000001    0.00000002   -0.00034157
     atom    8 type  1   force =    -0.00000001   -0.00000001   -0.00034157
     atom    9 type  1   force =    -0.00000000   -0.00000000    0.00020215
     atom   10 type  1   force =    -0.00000000   -0.00001350    0.00020198
     atom   11 type  1   force =    -0.00001350   -0.00000000    0.00020198
     atom   12 type  1   force =    -0.00001350   -0.00001350    0.00020201
     atom   13 type  1   force =    -0.00000001   -0.00000001   -0.00013292
     atom   14 type  1   force =    -0.00000001    0.00000002   -0.00013292
     atom   15 type  1   force =     0.00000002   -0.00000001   -0.00013292
     atom   16 type  1   force =     0.00000002    0.00000002   -0.00013293
     atom   17 type  1   force =     0.00000000    0.00000000    0.01302390
     atom   18 type  1   force =     0.00000000   -0.00001357    0.01302382
     atom   19 type  1   force =    -0.00001357    0.00000000    0.01302382
     atom   20 type  1   force =    -0.00001357   -0.00001357    0.01302369
     The Hubbard contrib.    to forces
     atom    1 type  1   force =     0.00000000    0.00000000   -0.00000000
     atom    2 type  1   force =     0.00000000    0.00000000   -0.00000000
     atom    3 type  1   force =     0.00000000    0.00000000   -0.00000000
     atom    4 type  1   force =     0.00000000    0.00000000   -0.00000000
     atom    5 type  1   force =     0.00000000    0.00000000   -0.00000000
     atom    6 type  1   force =     0.00000000   -0.00000000   -0.00000000
     atom    7 type  1   force =    -0.00000000    0.00000000   -0.00000000
     atom    8 type  1   force =    -0.00000000   -0.00000000   -0.00000000
     atom    9 type  1   force =     0.00000000    0.00000000   -0.00000000
     atom   10 type  1   force =     0.00000000    0.00000000   -0.00000000
     atom   11 type  1   force =     0.00000000    0.00000000   -0.00000000
     atom   12 type  1   force =     0.00000000    0.00000000   -0.00000000
     atom   13 type  1   force =    -0.00000000   -0.00000000    0.00000000
     atom   14 type  1   force =    -0.00000000    0.00000000    0.00000000
     atom   15 type  1   force =     0.00000000   -0.00000000    0.00000000
     atom   16 type  1   force =     0.00000000    0.00000000    0.00000000
     atom   17 type  1   force =     0.00000000    0.00000000    0.00000000
     atom   18 type  1   force =     0.00000000    0.00000000    0.00000000
     atom   19 type  1   force =     0.00000000    0.00000000    0.00000000
     atom   20 type  1   force =     0.00000000    0.00000000    0.00000000
     The SCF correction term to forces
     atom    1 type  1   force =     0.00000000    0.00000000    0.00000000
     atom    2 type  1   force =     0.00000000    0.00000000    0.00000000
     atom    3 type  1   force =     0.00000000    0.00000000    0.00000000
     atom    4 type  1   force =     0.00000000    0.00000000    0.00000000
     atom    5 type  1   force =     0.00000000    0.00000000    0.00000000
     atom    6 type  1   force =     0.00000000    0.00000000    0.00000000
     atom    7 type  1   force =     0.00000000    0.00000000    0.00000000
     atom    8 type  1   force =     0.00000000    0.00000000    0.00000000
     atom    9 type  1   force =     0.00000000    0.00000000    0.00000000
     atom   10 type  1   force =     0.00000000    0.00000000    0.00000000
     atom   11 type  1   force =     0.00000000    0.00000000    0.00000000
     atom   12 type  1   force =     0.00000000    0.00000000    0.00000000
     atom   13 type  1   force =     0.00001469    0.00001469    0.00000552
     atom   14 type  1   force =     0.00001469   -0.00001470    0.00000545
     atom   15 type  1   force =    -0.00001470    0.00001469    0.00000545
     atom   16 type  1   force =    -0.00001470   -0.00001470    0.00000539
     atom   17 type  1   force =    -0.00000097   -0.00000097   -0.00000734
     atom   18 type  1   force =    -0.00000097    0.00000098   -0.00002436
     atom   19 type  1   force =     0.00000098   -0.00000097   -0.00002436
     atom   20 type  1   force =     0.00000098    0.00000098   -0.00002524

     Total force =     0.000084     Total SCF correction =     0.000061
     SCF correction compared to forces is large: reduce conv_thr to get better values


     entering subroutine stress ...


     negative rho (up, down):  0.520E-04 0.137E-02
          total   stress  (Ry/bohr**3)                   (kbar)     P=  -14.38
  -0.00014629   0.00000000   0.00000000        -21.52      0.00      0.00
   0.00000000  -0.00014629   0.00000000          0.00    -21.52      0.00
   0.00000000   0.00000000  -0.00000077          0.00      0.00     -0.11

     kinetic stress (kbar)  31760.05     -0.00      0.00
                               -0.00  31760.05      0.00
                                0.00      0.00  31645.35

     local   stress (kbar)-864851.16     -0.00     -0.00
                               -0.00-864851.16     -0.00
                               -0.00     -0.00 915805.14

     nonloc. stress (kbar) -24782.63      0.00      0.00
                                0.00 -24782.63      0.00
                                0.00      0.00 -24699.89

     hartree stress (kbar) 457466.03      0.00      0.00
                                0.00 457466.03      0.00
                                0.00      0.00-422603.86

     exc-cor stress (kbar)  -1022.06     -0.00     -0.00
                               -0.00  -1022.06     -0.00
                               -0.00     -0.00  -1028.78

     corecor stress (kbar)  -6582.41      0.00      0.00
                                0.00  -6582.41      0.00
                                0.00      0.00  -6580.95

     ewald   stress (kbar) 407990.65      0.00      0.00
                                0.00 407990.65      0.00
                                0.00      0.00-492537.13

     hubbard stress (kbar)     -0.00      0.00      0.00
                                0.00     -0.00      0.00
                                0.00      0.00     -0.00

     london  stress (kbar)      0.00      0.00      0.00
                                0.00      0.00      0.00
                                0.00      0.00      0.00

     dft-nl  stress (kbar)      0.00      0.00      0.00
                                0.00      0.00      0.00
                                0.00      0.00      0.00



     BFGS Geometry Optimization

     bfgs converged in   1 scf cycles and   0 bfgs steps
     (criteria: energy < 0.10E-04, force < 0.10E-03)

     End of BFGS Geometry Optimization

     Final energy   =   -6584.6666815260 Ry
Begin final coordinates

ATOMIC_POSITIONS (angstrom)
Fe       0.000000000   0.000000000  -2.832506000    0   0   0
Fe       0.000000000   2.832506000  -2.832506000    0   0   0
Fe       2.832506000   0.000000000  -2.832506000    0   0   0
Fe       2.832506000   2.832506000  -2.832506000    0   0   0
Fe       1.416253000   1.416253000  -1.416253000    0   0   0
Fe       1.416253000  -1.416253000  -1.416253000    0   0   0
Fe      -1.416253000   1.416253000  -1.416253000    0   0   0
Fe      -1.416253000  -1.416253000  -1.416253000    0   0   0
Fe       0.000000000   0.000000000   0.000000000    0   0   0
Fe       0.000000000   2.832506000   0.000000000    0   0   0
Fe       2.832506000   0.000000000   0.000000000    0   0   0
Fe       2.832506000   2.832506000   0.000000000    0   0   0
Fe       1.416256023   1.416256023   1.432898813
Fe       1.416256023  -1.416256023   1.432898813
Fe      -1.416256023   1.416256023   1.432898813
Fe      -1.416256023  -1.416256023   1.432898813
Fe       0.000000000   0.000000000   2.828874784
Fe       0.000000000   2.832506000   2.828872452
Fe       2.832506000   0.000000000   2.828872452
Fe       2.832506000   2.832506000   2.828899099
End final coordinates



     Writing output data file Fe_100.save
 
     init_run     :     37.88s CPU     40.40s WALL (       1 calls)
     electrons    :   1391.04s CPU   1465.56s WALL (       1 calls)
     forces       :     65.72s CPU     66.41s WALL (       1 calls)
     stress       :    274.53s CPU    280.43s WALL (       1 calls)

     Called by init_run:
     wfcinit      :     19.11s CPU     21.14s WALL (       1 calls)
     potinit      :      1.64s CPU      1.74s WALL (       1 calls)

     Called by electrons:
     c_bands      :    565.22s CPU    590.72s WALL (      24 calls)
     sum_band     :    424.63s CPU    436.81s WALL (      24 calls)
     v_of_rho     :     18.25s CPU     18.73s WALL (      25 calls)
     v_h          :      0.92s CPU      0.95s WALL (      25 calls)
     v_xc         :     18.74s CPU     19.20s WALL (      27 calls)
     newd         :    279.83s CPU    280.44s WALL (      25 calls)
     mix_rho      :     89.95s CPU     90.20s WALL (      24 calls)

     Called by c_bands:
     init_us_2    :      3.48s CPU      3.48s WALL (     186 calls)
     cegterg      :    530.64s CPU    541.02s WALL (      72 calls)

     Called by sum_band:
     sum_band:bec :      0.15s CPU      0.14s WALL (      72 calls)
     addusdens    :    313.99s CPU    314.56s WALL (      24 calls)

     Called by *egterg:
     h_psi        :    402.42s CPU    403.18s WALL (     329 calls)
     s_psi        :     29.12s CPU     29.15s WALL (     362 calls)
     g_psi        :      0.73s CPU      0.72s WALL (     254 calls)
     cdiaghg      :     37.35s CPU     37.57s WALL (     326 calls)
     cegterg:over :     29.87s CPU     29.89s WALL (     254 calls)
     cegterg:upda :     23.95s CPU     24.17s WALL (     254 calls)
     cegterg:last :     12.90s CPU     12.89s WALL (      72 calls)
     cdiaghg:chol :      1.79s CPU      1.81s WALL (     326 calls)
     cdiaghg:inve :      0.65s CPU      0.63s WALL (     326 calls)
     cdiaghg:para :      7.35s CPU      7.40s WALL (     652 calls)

     Called by h_psi:
     h_psi:vloc   :    271.47s CPU    272.12s WALL (     329 calls)
     h_psi:vnl    :     50.72s CPU     50.76s WALL (     329 calls)
     add_vuspsi   :     24.61s CPU     24.62s WALL (     329 calls)
     vhpsi        :     78.78s CPU     78.81s WALL (     329 calls)

     General routines
     calbec       :     87.54s CPU     87.67s WALL (    1438 calls)
     fft          :     20.63s CPU     20.95s WALL (     809 calls)
     ffts         :     41.31s CPU     41.28s WALL (    7921 calls)
     fftw         :    268.84s CPU    269.55s WALL (   37694 calls)
     interpolate  :      3.28s CPU      3.38s WALL (      98 calls)
     davcio       :      7.04s CPU     40.44s WALL (     543 calls)
 
     Parallel routines
     fft_scatter  :    145.24s CPU    145.88s WALL (   46424 calls)
     ALLTOALL     :      9.12s CPU      9.16s WALL (   37656 calls)
     Hubbard U routines
     new_ns       :      9.83s CPU     17.68s WALL (      24 calls)
     vhpsi        :     78.78s CPU     78.81s WALL (     329 calls)
     force_hub    :     11.09s CPU     11.60s WALL (       1 calls)
     stres_hub    :    113.26s CPU    118.94s WALL (       1 calls)
 
     PAW routines
     PAW_pot      :      6.51s CPU      6.54s WALL (      25 calls)
     PAW_ddot     :      4.73s CPU      4.75s WALL (     796 calls)
     PAW_symme    :      0.02s CPU      0.02s WALL (      49 calls)
 
     PWSCF        : 29m38.38s CPU    31m11.61s WALL

 
   This run was terminated on:   4:19:30   5Aug2015            

=------------------------------------------------------------------------------=
   JOB DONE.
=------------------------------------------------------------------------------=
Application 16683442 resources: utime ~87301s, stime ~2310s, Rss ~617400, inblocks ~3155407888, outblocks ~496899232
