
     Program PWSCF v.5.0.2 (svn rev. 9656) starts on 12Dec2015 at  4:49:14 

     This program is part of the open-source Quantum ESPRESSO suite
     for quantum simulation of materials; please cite
         "P. Giannozzi et al., J. Phys.:Condens. Matter 21 395502 (2009);
          URL http://www.quantum-espresso.org", 
     in publications or presentations arising from this work. More details at
     http://www.quantum-espresso.org/quote.php

     Parallel version (MPI & OpenMP), running on      48 processor cores
     Number of MPI processes:                48
     Threads/MPI process:                     1
     K-points division:     npool     =       4
     R & G space division:  proc/nbgrp/npool/nimage =      12
     wavefunctions fft division:  fft/group =       2

     Current dimensions of program PWSCF are:
     Max number of different atomic species (ntypx) = 10
     Max number of k-points (npk) =  40000
     Max angular momentum in pseudopotentials (lmaxx) =  3
     Reading input from Fe_110_2x2_SB_O_LB_CO_25ML_scf.in
Warning: card  &IONS ignored
Warning: card  / ignored
Warning: card  &CELL ignored
Warning: card    PRESS=0.0 ignored
Warning: card    PRESS_CONV_THR=0.1 ignored
Warning: card  / ignored

     IMPORTANT: XC functional enforced from input :
     Exchange-correlation      = PBE ( 1 4 3 4 0)
     EXX-fraction              =        0.00
     Any further DFT definition will be discarded
     Please, verify this is what you really want

               file Fe.pbe-spn-kjpaw_psl.0.2.1.UPF: wavefunction(s)  3D renormalized
               file C.pbe-n-kjpaw_psl.0.1.upf: wavefunction(s)  2P renormalized
               file O.pbe-n-kjpaw_psl.0.1.UPF: wavefunction(s)  2P renormalized

     Subspace diagonalization in iterative solution of the eigenvalue problem:
     scalapack distributed-memory algorithm (size of sub-group:  2*  2 procs)


   Task Groups are in USE
   groups and procs/group :     2    6
 
     Parallelization info
     --------------------
     sticks:   dense  smooth     PW     G-vecs:    dense   smooth      PW
     Min         429     203     57                99954    32713    4877
     Max         431     204     58                99959    32748    4892
     Sum        5161    2447    693              1199489   392779   58615
 


     bravais-lattice index     =            0
     lattice parameter (alat)  =       1.8897  a.u.
     unit-cell volume          =    3139.3349 (a.u.)^3
     number of atoms/cell      =           23
     number of atomic types    =            3
     number of electrons       =       336.00
     number of Kohn-Sham states=          202
     kinetic-energy cutoff     =      95.0000  Ry
     charge density cutoff     =     800.0000  Ry
     convergence threshold     =      1.0E-08
     mixing beta               =       0.5000
     number of iterations used =            8  local-TF  mixing
     Exchange-correlation      = PBE ( 1 4 3 4 0)
     EXX-fraction              =        0.00

     celldm(1)=   1.889727  celldm(2)=   0.000000  celldm(3)=   0.000000
     celldm(4)=   0.000000  celldm(5)=   0.000000  celldm(6)=   0.000000

     crystal axes: (cart. coord. in units of alat)
               a(1) = (   4.906044   0.000000   0.000000 )  
               a(2) = (  -1.635348   4.625463   0.000000 )  
               a(3) = (   0.000000   0.000000  20.500000 )  

     reciprocal axes: (cart. coord. in units 2 pi/alat)
               b(1) = (  0.203830  0.072065  0.000000 )  
               b(2) = (  0.000000  0.216195  0.000000 )  
               b(3) = (  0.000000  0.000000  0.048780 )  


     PseudoPot. # 1 for Fe read from file:
     /work/e05/e05/ablar/QE_PSEUDO/Fe.pbe-spn-kjpaw_psl.0.2.1.UPF
     MD5 check sum: a0a08122d52b112de96d1da1d7dd020f
     Pseudo is Projector augmented-wave + core cor, Zval = 16.0
     Generated using "atomic" code by A. Dal Corso  v.5.0.2 svn rev. 9415
     Shape of augmentation charge: PSQ
     Using radial grid of 1191 points,  6 beta functions with: 
                l(1) =   0
                l(2) =   0
                l(3) =   1
                l(4) =   1
                l(5) =   2
                l(6) =   2
     Q(r) pseudized with 0 coefficients 


     PseudoPot. # 2 for  C read from file:
     /work/e05/e05/ablar/QE_PSEUDO/C.pbe-n-kjpaw_psl.0.1.upf
     MD5 check sum: 430fe95172b1e11ef3f8ed03bac87931
     Pseudo is Projector augmented-wave + core cor, Zval =  4.0
     Generated using "atomic" code by A. Dal Corso  v.5.0.99 svn rev. 10869
     Shape of augmentation charge: BESSEL
     Using radial grid of 1073 points,  4 beta functions with: 
                l(1) =   0
                l(2) =   0
                l(3) =   1
                l(4) =   1
     Q(r) pseudized with 0 coefficients 


     PseudoPot. # 3 for  O read from file:
     /work/e05/e05/ablar/QE_PSEUDO/O.pbe-n-kjpaw_psl.0.1.UPF
     MD5 check sum: 1d826bf4880e2aee2c3af49d0719521d
     Pseudo is Projector augmented-wave + core cor, Zval =  6.0
     Generated using "atomic" code by A. Dal Corso  v.5.0.2 svn rev. 9415
     Shape of augmentation charge: BESSEL
     Using radial grid of 1095 points,  4 beta functions with: 
                l(1) =   0
                l(2) =   0
                l(3) =   1
                l(4) =   1
     Q(r) pseudized with 0 coefficients 


     atomic species   valence    mass     pseudopotential
        Fe            16.00    55.85000     Fe( 1.00)
        C              4.00    12.00000      C( 1.00)
        O              6.00    16.00000      O( 1.00)

     Starting magnetic structure 
     atomic species   magnetization
        Fe           0.600
        C            0.000
        O            0.000


     Simplified LDA+U calculation (l_max = 2) with parameters (eV):
     atomic species    L          U    alpha       J0     beta
        Fe             2     0.0000   0.0000   0.0000   0.0000



     No symmetry found


                                    s                        frac. trans.

      isym =  1     identity                                     

 cryst.   s( 1) = (     1          0          0      )
                  (     0          1          0      )
                  (     0          0          1      )

 cart.    s( 1) = (  1.0000000  0.0000000  0.0000000 )
                  (  0.0000000  1.0000000  0.0000000 )
                  (  0.0000000  0.0000000  1.0000000 )


     point group C_1 (1)    
     there are  1 classes
     the character table:

       E    
A      1.00

     the symmetry operations in each class:
     E        1

   Cartesian axes

     site n.     atom                  positions (alat units)
         1           Fe  tau(   1) = (   0.0000000   0.0000000  -4.0057584  )
         2           Fe  tau(   2) = (  -0.8176697   2.3127291  -4.0057584  )
         3           Fe  tau(   3) = (   2.4530190   0.0000000  -4.0057584  )
         4           Fe  tau(   4) = (  -3.2706887   2.3127291  -4.0057584  )
         5           Fe  tau(   5) = (   0.8176697   1.1563595  -2.0028892  )
         6           Fe  tau(   6) = (  -0.8176697  -1.1563595  -2.0028892  )
         7           Fe  tau(   7) = (   1.6353494  -1.1563595  -2.0028892  )
         8           Fe  tau(   8) = (  -1.6353494   1.1563595  -2.0028892  )
         9           Fe  tau(   9) = (   0.0000000   0.0000000   0.0000000  )
        10           Fe  tau(  10) = (  -0.8176697   2.3127291   0.0000000  )
        11           Fe  tau(  11) = (   2.4530190   0.0000000   0.0000000  )
        12           Fe  tau(  12) = (  -3.2706887   2.3127291   0.0000000  )
        13           Fe  tau(  13) = (   0.8283827   1.1694849   1.9793317  )
        14           Fe  tau(  14) = (  -0.8178250  -1.1621254   1.9639967  )
        15           Fe  tau(  15) = (   1.6449356  -1.1418947   2.0070874  )
        16           Fe  tau(  16) = (  -1.6306659   1.1606257   1.9996973  )
        17           Fe  tau(  17) = (  -0.0006606  -0.0334763   3.9034086  )
        18           Fe  tau(  18) = (  -0.8075391   2.2979688   4.0409380  )
        19           Fe  tau(  19) = (   2.5135074   0.0760972   4.1246713  )
        20           Fe  tau(  20) = (  -3.2264139   2.4265124   3.9535496  )
        21           O   tau(  21) = (   1.8611474   0.2981931   6.0107602  )
        22           C   tau(  22) = (   0.8783797   0.8266121   5.3796659  )
        23           O   tau(  23) = (   0.4631725   2.0752645   5.6080450  )

   Crystallographic axes

     site n.     atom                  positions (cryst. coord.)
         1           Fe  tau(   1) = (  0.0000000  0.0000000 -0.1954028  )
         2           Fe  tau(   2) = (  0.0000007  0.4999995 -0.1954028  )
         3           Fe  tau(   3) = (  0.4999994  0.0000000 -0.1954028  )
         4           Fe  tau(   4) = ( -0.4999986  0.4999995 -0.1954028  )
         5           Fe  tau(   5) = (  0.2499987  0.2499987 -0.0977019  )
         6           Fe  tau(   6) = ( -0.2499987 -0.2499987 -0.0977019  )
         7           Fe  tau(   7) = (  0.2500007 -0.2499987 -0.0977019  )
         8           Fe  tau(   8) = ( -0.2500007  0.2499987 -0.0977019  )
         9           Fe  tau(   9) = (  0.0000000  0.0000000  0.0000000  )
        10           Fe  tau(  10) = (  0.0000007  0.4999995  0.0000000  )
        11           Fe  tau(  11) = (  0.4999994  0.0000000  0.0000000  )
        12           Fe  tau(  12) = ( -0.4999986  0.4999995  0.0000000  )
        13           Fe  tau(  13) = (  0.2531282  0.2528363  0.0965528  )
        14           Fe  tau(  14) = ( -0.2504458 -0.2512452  0.0958047  )
        15           Fe  tau(  15) = (  0.2529971 -0.2468715  0.0979067  )
        16           Fe  tau(  16) = ( -0.2487386  0.2509210  0.0975462  )
        17           Fe  tau(  17) = ( -0.0025471 -0.0072374  0.1904102  )
        18           Fe  tau(  18) = (  0.0010019  0.4968084  0.1971189  )
        19           Fe  tau(  19) = (  0.5178126  0.0164518  0.2012035  )
        20           Fe  tau(  20) = ( -0.4827743  0.5245988  0.1928561  )
        21           O   tau(  21) = (  0.4008473  0.0644677  0.2932078  )
        22           C   tau(  22) = (  0.2386100  0.1787091  0.2624227  )
        23           O   tau(  23) = (  0.2439622  0.4486609  0.2735632  )

     number of k points=    20  Marzari-Vanderbilt smearing, width (Ry)=  0.0400
                       cart. coord. in units 2pi/alat
        k(    1) = (   0.0000000   0.0000000   0.0000000), wk =   0.0625000
        k(    2) = (   0.0000000   0.0540486   0.0000000), wk =   0.1250000
        k(    3) = (   0.0000000  -0.1080973   0.0000000), wk =   0.0625000
        k(    4) = (   0.0509576   0.0180162   0.0000000), wk =   0.1250000
        k(    5) = (   0.0509576   0.0720649   0.0000000), wk =   0.1250000
        k(    6) = (   0.0509576  -0.0900811   0.0000000), wk =   0.1250000
        k(    7) = (   0.0509576  -0.0360324   0.0000000), wk =   0.1250000
        k(    8) = (  -0.1019151  -0.0360324   0.0000000), wk =   0.0625000
        k(    9) = (  -0.1019151   0.0180162   0.0000000), wk =   0.1250000
        k(   10) = (  -0.1019151  -0.1441297   0.0000000), wk =   0.0625000
        k(   11) = (   0.0000000   0.0000000   0.0000000), wk =   0.0625000
        k(   12) = (   0.0000000   0.0540486   0.0000000), wk =   0.1250000
        k(   13) = (   0.0000000  -0.1080973   0.0000000), wk =   0.0625000
        k(   14) = (   0.0509576   0.0180162   0.0000000), wk =   0.1250000
        k(   15) = (   0.0509576   0.0720649   0.0000000), wk =   0.1250000
        k(   16) = (   0.0509576  -0.0900811   0.0000000), wk =   0.1250000
        k(   17) = (   0.0509576  -0.0360324   0.0000000), wk =   0.1250000
        k(   18) = (  -0.1019151  -0.0360324   0.0000000), wk =   0.0625000
        k(   19) = (  -0.1019151   0.0180162   0.0000000), wk =   0.1250000
        k(   20) = (  -0.1019151  -0.1441297   0.0000000), wk =   0.0625000

                       cryst. coord.
        k(    1) = (   0.0000000   0.0000000   0.0000000), wk =   0.0625000
        k(    2) = (   0.0000000   0.2500000   0.0000000), wk =   0.1250000
        k(    3) = (   0.0000000  -0.5000000   0.0000000), wk =   0.0625000
        k(    4) = (   0.2500000   0.0000000   0.0000000), wk =   0.1250000
        k(    5) = (   0.2500000   0.2500000   0.0000000), wk =   0.1250000
        k(    6) = (   0.2500000  -0.5000000   0.0000000), wk =   0.1250000
        k(    7) = (   0.2500000  -0.2500000   0.0000000), wk =   0.1250000
        k(    8) = (  -0.5000000  -0.0000000   0.0000000), wk =   0.0625000
        k(    9) = (  -0.5000000   0.2500000   0.0000000), wk =   0.1250000
        k(   10) = (  -0.5000000  -0.5000000   0.0000000), wk =   0.0625000
        k(   11) = (   0.0000000   0.0000000   0.0000000), wk =   0.0625000
        k(   12) = (   0.0000000   0.2500000   0.0000000), wk =   0.1250000
        k(   13) = (   0.0000000  -0.5000000   0.0000000), wk =   0.0625000
        k(   14) = (   0.2500000   0.0000000   0.0000000), wk =   0.1250000
        k(   15) = (   0.2500000   0.2500000   0.0000000), wk =   0.1250000
        k(   16) = (   0.2500000  -0.5000000   0.0000000), wk =   0.1250000
        k(   17) = (   0.2500000  -0.2500000   0.0000000), wk =   0.1250000
        k(   18) = (  -0.5000000  -0.0000000   0.0000000), wk =   0.0625000
        k(   19) = (  -0.5000000   0.2500000   0.0000000), wk =   0.1250000
        k(   20) = (  -0.5000000  -0.5000000   0.0000000), wk =   0.0625000

     Dense  grid:  1199489 G-vectors     FFT dimensions: (  90,  90, 360)

     Smooth grid:   392779 G-vectors     FFT dimensions: (  60,  60, 243)

     Largest allocated arrays     est. size (Mb)     dimensions
        Kohn-Sham Wavefunctions        13.04 Mb     (   4230,  202)
        Atomic wavefunctions           17.56 Mb     (   4230,  272)
        NL pseudopotentials            24.79 Mb     (   4230,  384)
        Each V/rho on FFT grid          7.42 Mb     ( 243000,   2)
        Each G-vector array             0.76 Mb     (  99959)
        G-vector shells                 0.31 Mb     (  40422)
     Largest temporary arrays     est. size (Mb)     dimensions
        Auxiliary wavefunctions        52.15 Mb     (   4230,  808)
        Each subspace H/S matrix        2.49 Mb     ( 404, 404)
        Each <psi_i|beta_j> matrix      1.18 Mb     (    384,  202)
        Arrays for rho mixing          29.66 Mb     ( 243000,   8)

     Check: negative/imaginary core charge=   -0.000012    0.000000

     Initial potential from superposition of free atoms

     starting charge  335.99119, renormalised to  336.00000

     negative rho (up, down):  0.285E-04 0.115E-04
 --- in v_hubbard ---
Hubbard energy    0.0000
 -------
     Number of +U iterations with fixed ns =  0
     Starting occupations:
 --- enter write_ns ---
 LDA+U parameters:
U( 1)     =  0.00000000
alpha( 1) =  0.00000000
atom    1   Tr[ns(na)] (up, down, total) =   5.00000  1.00000  6.00000
   spin  1
    eigenvalues: 
  1.000  1.000  1.000  1.000  1.000
    eigenvectors:
  1.000  0.000  0.000  0.000  0.000
  0.000  1.000  0.000  0.000  0.000
  0.000  0.000  1.000  0.000  0.000
  0.000  0.000  0.000  1.000  0.000
  0.000  0.000  0.000  0.000  1.000
    occupations:
  1.000  0.000  0.000  0.000  0.000
  0.000  1.000  0.000  0.000  0.000
  0.000  0.000  1.000  0.000  0.000
  0.000  0.000  0.000  1.000  0.000
  0.000  0.000  0.000  0.000  1.000
   spin  2
    eigenvalues: 
  0.200  0.200  0.200  0.200  0.200
    eigenvectors:
  1.000  0.000  0.000  0.000  0.000
  0.000  1.000  0.000  0.000  0.000
  0.000  0.000  1.000  0.000  0.000
  0.000  0.000  0.000  1.000  0.000
  0.000  0.000  0.000  0.000  1.000
    occupations:
  0.200  0.000  0.000  0.000  0.000
  0.000  0.200  0.000  0.000  0.000
  0.000  0.000  0.200  0.000  0.000
  0.000  0.000  0.000  0.200  0.000
  0.000  0.000  0.000  0.000  0.200
atomic mag. moment =     4.000000
atom    2   Tr[ns(na)] (up, down, total) =   5.00000  1.00000  6.00000
   spin  1
    eigenvalues: 
  1.000  1.000  1.000  1.000  1.000
    eigenvectors:
  1.000  0.000  0.000  0.000  0.000
  0.000  1.000  0.000  0.000  0.000
  0.000  0.000  1.000  0.000  0.000
  0.000  0.000  0.000  1.000  0.000
  0.000  0.000  0.000  0.000  1.000
    occupations:
  1.000  0.000  0.000  0.000  0.000
  0.000  1.000  0.000  0.000  0.000
  0.000  0.000  1.000  0.000  0.000
  0.000  0.000  0.000  1.000  0.000
  0.000  0.000  0.000  0.000  1.000
   spin  2
    eigenvalues: 
  0.200  0.200  0.200  0.200  0.200
    eigenvectors:
  1.000  0.000  0.000  0.000  0.000
  0.000  1.000  0.000  0.000  0.000
  0.000  0.000  1.000  0.000  0.000
  0.000  0.000  0.000  1.000  0.000
  0.000  0.000  0.000  0.000  1.000
    occupations:
  0.200  0.000  0.000  0.000  0.000
  0.000  0.200  0.000  0.000  0.000
  0.000  0.000  0.200  0.000  0.000
  0.000  0.000  0.000  0.200  0.000
  0.000  0.000  0.000  0.000  0.200
atomic mag. moment =     4.000000
atom    3   Tr[ns(na)] (up, down, total) =   5.00000  1.00000  6.00000
   spin  1
    eigenvalues: 
  1.000  1.000  1.000  1.000  1.000
    eigenvectors:
  1.000  0.000  0.000  0.000  0.000
  0.000  1.000  0.000  0.000  0.000
  0.000  0.000  1.000  0.000  0.000
  0.000  0.000  0.000  1.000  0.000
  0.000  0.000  0.000  0.000  1.000
    occupations:
  1.000  0.000  0.000  0.000  0.000
  0.000  1.000  0.000  0.000  0.000
  0.000  0.000  1.000  0.000  0.000
  0.000  0.000  0.000  1.000  0.000
  0.000  0.000  0.000  0.000  1.000
   spin  2
    eigenvalues: 
  0.200  0.200  0.200  0.200  0.200
    eigenvectors:
  1.000  0.000  0.000  0.000  0.000
  0.000  1.000  0.000  0.000  0.000
  0.000  0.000  1.000  0.000  0.000
  0.000  0.000  0.000  1.000  0.000
  0.000  0.000  0.000  0.000  1.000
    occupations:
  0.200  0.000  0.000  0.000  0.000
  0.000  0.200  0.000  0.000  0.000
  0.000  0.000  0.200  0.000  0.000
  0.000  0.000  0.000  0.200  0.000
  0.000  0.000  0.000  0.000  0.200
atomic mag. moment =     4.000000
atom    4   Tr[ns(na)] (up, down, total) =   5.00000  1.00000  6.00000
   spin  1
    eigenvalues: 
  1.000  1.000  1.000  1.000  1.000
    eigenvectors:
  1.000  0.000  0.000  0.000  0.000
  0.000  1.000  0.000  0.000  0.000
  0.000  0.000  1.000  0.000  0.000
  0.000  0.000  0.000  1.000  0.000
  0.000  0.000  0.000  0.000  1.000
    occupations:
  1.000  0.000  0.000  0.000  0.000
  0.000  1.000  0.000  0.000  0.000
  0.000  0.000  1.000  0.000  0.000
  0.000  0.000  0.000  1.000  0.000
  0.000  0.000  0.000  0.000  1.000
   spin  2
    eigenvalues: 
  0.200  0.200  0.200  0.200  0.200
    eigenvectors:
  1.000  0.000  0.000  0.000  0.000
  0.000  1.000  0.000  0.000  0.000
  0.000  0.000  1.000  0.000  0.000
  0.000  0.000  0.000  1.000  0.000
  0.000  0.000  0.000  0.000  1.000
    occupations:
  0.200  0.000  0.000  0.000  0.000
  0.000  0.200  0.000  0.000  0.000
  0.000  0.000  0.200  0.000  0.000
  0.000  0.000  0.000  0.200  0.000
  0.000  0.000  0.000  0.000  0.200
atomic mag. moment =     4.000000
atom    5   Tr[ns(na)] (up, down, total) =   5.00000  1.00000  6.00000
   spin  1
    eigenvalues: 
  1.000  1.000  1.000  1.000  1.000
    eigenvectors:
  1.000  0.000  0.000  0.000  0.000
  0.000  1.000  0.000  0.000  0.000
  0.000  0.000  1.000  0.000  0.000
  0.000  0.000  0.000  1.000  0.000
  0.000  0.000  0.000  0.000  1.000
    occupations:
  1.000  0.000  0.000  0.000  0.000
  0.000  1.000  0.000  0.000  0.000
  0.000  0.000  1.000  0.000  0.000
  0.000  0.000  0.000  1.000  0.000
  0.000  0.000  0.000  0.000  1.000
   spin  2
    eigenvalues: 
  0.200  0.200  0.200  0.200  0.200
    eigenvectors:
  1.000  0.000  0.000  0.000  0.000
  0.000  1.000  0.000  0.000  0.000
  0.000  0.000  1.000  0.000  0.000
  0.000  0.000  0.000  1.000  0.000
  0.000  0.000  0.000  0.000  1.000
    occupations:
  0.200  0.000  0.000  0.000  0.000
  0.000  0.200  0.000  0.000  0.000
  0.000  0.000  0.200  0.000  0.000
  0.000  0.000  0.000  0.200  0.000
  0.000  0.000  0.000  0.000  0.200
atomic mag. moment =     4.000000
atom    6   Tr[ns(na)] (up, down, total) =   5.00000  1.00000  6.00000
   spin  1
    eigenvalues: 
  1.000  1.000  1.000  1.000  1.000
    eigenvectors:
  1.000  0.000  0.000  0.000  0.000
  0.000  1.000  0.000  0.000  0.000
  0.000  0.000  1.000  0.000  0.000
  0.000  0.000  0.000  1.000  0.000
  0.000  0.000  0.000  0.000  1.000
    occupations:
  1.000  0.000  0.000  0.000  0.000
  0.000  1.000  0.000  0.000  0.000
  0.000  0.000  1.000  0.000  0.000
  0.000  0.000  0.000  1.000  0.000
  0.000  0.000  0.000  0.000  1.000
   spin  2
    eigenvalues: 
  0.200  0.200  0.200  0.200  0.200
    eigenvectors:
  1.000  0.000  0.000  0.000  0.000
  0.000  1.000  0.000  0.000  0.000
  0.000  0.000  1.000  0.000  0.000
  0.000  0.000  0.000  1.000  0.000
  0.000  0.000  0.000  0.000  1.000
    occupations:
  0.200  0.000  0.000  0.000  0.000
  0.000  0.200  0.000  0.000  0.000
  0.000  0.000  0.200  0.000  0.000
  0.000  0.000  0.000  0.200  0.000
  0.000  0.000  0.000  0.000  0.200
atomic mag. moment =     4.000000
atom    7   Tr[ns(na)] (up, down, total) =   5.00000  1.00000  6.00000
   spin  1
    eigenvalues: 
  1.000  1.000  1.000  1.000  1.000
    eigenvectors:
  1.000  0.000  0.000  0.000  0.000
  0.000  1.000  0.000  0.000  0.000
  0.000  0.000  1.000  0.000  0.000
  0.000  0.000  0.000  1.000  0.000
  0.000  0.000  0.000  0.000  1.000
    occupations:
  1.000  0.000  0.000  0.000  0.000
  0.000  1.000  0.000  0.000  0.000
  0.000  0.000  1.000  0.000  0.000
  0.000  0.000  0.000  1.000  0.000
  0.000  0.000  0.000  0.000  1.000
   spin  2
    eigenvalues: 
  0.200  0.200  0.200  0.200  0.200
    eigenvectors:
  1.000  0.000  0.000  0.000  0.000
  0.000  1.000  0.000  0.000  0.000
  0.000  0.000  1.000  0.000  0.000
  0.000  0.000  0.000  1.000  0.000
  0.000  0.000  0.000  0.000  1.000
    occupations:
  0.200  0.000  0.000  0.000  0.000
  0.000  0.200  0.000  0.000  0.000
  0.000  0.000  0.200  0.000  0.000
  0.000  0.000  0.000  0.200  0.000
  0.000  0.000  0.000  0.000  0.200
atomic mag. moment =     4.000000
atom    8   Tr[ns(na)] (up, down, total) =   5.00000  1.00000  6.00000
   spin  1
    eigenvalues: 
  1.000  1.000  1.000  1.000  1.000
    eigenvectors:
  1.000  0.000  0.000  0.000  0.000
  0.000  1.000  0.000  0.000  0.000
  0.000  0.000  1.000  0.000  0.000
  0.000  0.000  0.000  1.000  0.000
  0.000  0.000  0.000  0.000  1.000
    occupations:
  1.000  0.000  0.000  0.000  0.000
  0.000  1.000  0.000  0.000  0.000
  0.000  0.000  1.000  0.000  0.000
  0.000  0.000  0.000  1.000  0.000
  0.000  0.000  0.000  0.000  1.000
   spin  2
    eigenvalues: 
  0.200  0.200  0.200  0.200  0.200
    eigenvectors:
  1.000  0.000  0.000  0.000  0.000
  0.000  1.000  0.000  0.000  0.000
  0.000  0.000  1.000  0.000  0.000
  0.000  0.000  0.000  1.000  0.000
  0.000  0.000  0.000  0.000  1.000
    occupations:
  0.200  0.000  0.000  0.000  0.000
  0.000  0.200  0.000  0.000  0.000
  0.000  0.000  0.200  0.000  0.000
  0.000  0.000  0.000  0.200  0.000
  0.000  0.000  0.000  0.000  0.200
atomic mag. moment =     4.000000
atom    9   Tr[ns(na)] (up, down, total) =   5.00000  1.00000  6.00000
   spin  1
    eigenvalues: 
  1.000  1.000  1.000  1.000  1.000
    eigenvectors:
  1.000  0.000  0.000  0.000  0.000
  0.000  1.000  0.000  0.000  0.000
  0.000  0.000  1.000  0.000  0.000
  0.000  0.000  0.000  1.000  0.000
  0.000  0.000  0.000  0.000  1.000
    occupations:
  1.000  0.000  0.000  0.000  0.000
  0.000  1.000  0.000  0.000  0.000
  0.000  0.000  1.000  0.000  0.000
  0.000  0.000  0.000  1.000  0.000
  0.000  0.000  0.000  0.000  1.000
   spin  2
    eigenvalues: 
  0.200  0.200  0.200  0.200  0.200
    eigenvectors:
  1.000  0.000  0.000  0.000  0.000
  0.000  1.000  0.000  0.000  0.000
  0.000  0.000  1.000  0.000  0.000
  0.000  0.000  0.000  1.000  0.000
  0.000  0.000  0.000  0.000  1.000
    occupations:
  0.200  0.000  0.000  0.000  0.000
  0.000  0.200  0.000  0.000  0.000
  0.000  0.000  0.200  0.000  0.000
  0.000  0.000  0.000  0.200  0.000
  0.000  0.000  0.000  0.000  0.200
atomic mag. moment =     4.000000
atom   10   Tr[ns(na)] (up, down, total) =   5.00000  1.00000  6.00000
   spin  1
    eigenvalues: 
  1.000  1.000  1.000  1.000  1.000
    eigenvectors:
  1.000  0.000  0.000  0.000  0.000
  0.000  1.000  0.000  0.000  0.000
  0.000  0.000  1.000  0.000  0.000
  0.000  0.000  0.000  1.000  0.000
  0.000  0.000  0.000  0.000  1.000
    occupations:
  1.000  0.000  0.000  0.000  0.000
  0.000  1.000  0.000  0.000  0.000
  0.000  0.000  1.000  0.000  0.000
  0.000  0.000  0.000  1.000  0.000
  0.000  0.000  0.000  0.000  1.000
   spin  2
    eigenvalues: 
  0.200  0.200  0.200  0.200  0.200
    eigenvectors:
  1.000  0.000  0.000  0.000  0.000
  0.000  1.000  0.000  0.000  0.000
  0.000  0.000  1.000  0.000  0.000
  0.000  0.000  0.000  1.000  0.000
  0.000  0.000  0.000  0.000  1.000
    occupations:
  0.200  0.000  0.000  0.000  0.000
  0.000  0.200  0.000  0.000  0.000
  0.000  0.000  0.200  0.000  0.000
  0.000  0.000  0.000  0.200  0.000
  0.000  0.000  0.000  0.000  0.200
atomic mag. moment =     4.000000
atom   11   Tr[ns(na)] (up, down, total) =   5.00000  1.00000  6.00000
   spin  1
    eigenvalues: 
  1.000  1.000  1.000  1.000  1.000
    eigenvectors:
  1.000  0.000  0.000  0.000  0.000
  0.000  1.000  0.000  0.000  0.000
  0.000  0.000  1.000  0.000  0.000
  0.000  0.000  0.000  1.000  0.000
  0.000  0.000  0.000  0.000  1.000
    occupations:
  1.000  0.000  0.000  0.000  0.000
  0.000  1.000  0.000  0.000  0.000
  0.000  0.000  1.000  0.000  0.000
  0.000  0.000  0.000  1.000  0.000
  0.000  0.000  0.000  0.000  1.000
   spin  2
    eigenvalues: 
  0.200  0.200  0.200  0.200  0.200
    eigenvectors:
  1.000  0.000  0.000  0.000  0.000
  0.000  1.000  0.000  0.000  0.000
  0.000  0.000  1.000  0.000  0.000
  0.000  0.000  0.000  1.000  0.000
  0.000  0.000  0.000  0.000  1.000
    occupations:
  0.200  0.000  0.000  0.000  0.000
  0.000  0.200  0.000  0.000  0.000
  0.000  0.000  0.200  0.000  0.000
  0.000  0.000  0.000  0.200  0.000
  0.000  0.000  0.000  0.000  0.200
atomic mag. moment =     4.000000
atom   12   Tr[ns(na)] (up, down, total) =   5.00000  1.00000  6.00000
   spin  1
    eigenvalues: 
  1.000  1.000  1.000  1.000  1.000
    eigenvectors:
  1.000  0.000  0.000  0.000  0.000
  0.000  1.000  0.000  0.000  0.000
  0.000  0.000  1.000  0.000  0.000
  0.000  0.000  0.000  1.000  0.000
  0.000  0.000  0.000  0.000  1.000
    occupations:
  1.000  0.000  0.000  0.000  0.000
  0.000  1.000  0.000  0.000  0.000
  0.000  0.000  1.000  0.000  0.000
  0.000  0.000  0.000  1.000  0.000
  0.000  0.000  0.000  0.000  1.000
   spin  2
    eigenvalues: 
  0.200  0.200  0.200  0.200  0.200
    eigenvectors:
  1.000  0.000  0.000  0.000  0.000
  0.000  1.000  0.000  0.000  0.000
  0.000  0.000  1.000  0.000  0.000
  0.000  0.000  0.000  1.000  0.000
  0.000  0.000  0.000  0.000  1.000
    occupations:
  0.200  0.000  0.000  0.000  0.000
  0.000  0.200  0.000  0.000  0.000
  0.000  0.000  0.200  0.000  0.000
  0.000  0.000  0.000  0.200  0.000
  0.000  0.000  0.000  0.000  0.200
atomic mag. moment =     4.000000
atom   13   Tr[ns(na)] (up, down, total) =   5.00000  1.00000  6.00000
   spin  1
    eigenvalues: 
  1.000  1.000  1.000  1.000  1.000
    eigenvectors:
  1.000  0.000  0.000  0.000  0.000
  0.000  1.000  0.000  0.000  0.000
  0.000  0.000  1.000  0.000  0.000
  0.000  0.000  0.000  1.000  0.000
  0.000  0.000  0.000  0.000  1.000
    occupations:
  1.000  0.000  0.000  0.000  0.000
  0.000  1.000  0.000  0.000  0.000
  0.000  0.000  1.000  0.000  0.000
  0.000  0.000  0.000  1.000  0.000
  0.000  0.000  0.000  0.000  1.000
   spin  2
    eigenvalues: 
  0.200  0.200  0.200  0.200  0.200
    eigenvectors:
  1.000  0.000  0.000  0.000  0.000
  0.000  1.000  0.000  0.000  0.000
  0.000  0.000  1.000  0.000  0.000
  0.000  0.000  0.000  1.000  0.000
  0.000  0.000  0.000  0.000  1.000
    occupations:
  0.200  0.000  0.000  0.000  0.000
  0.000  0.200  0.000  0.000  0.000
  0.000  0.000  0.200  0.000  0.000
  0.000  0.000  0.000  0.200  0.000
  0.000  0.000  0.000  0.000  0.200
atomic mag. moment =     4.000000
atom   14   Tr[ns(na)] (up, down, total) =   5.00000  1.00000  6.00000
   spin  1
    eigenvalues: 
  1.000  1.000  1.000  1.000  1.000
    eigenvectors:
  1.000  0.000  0.000  0.000  0.000
  0.000  1.000  0.000  0.000  0.000
  0.000  0.000  1.000  0.000  0.000
  0.000  0.000  0.000  1.000  0.000
  0.000  0.000  0.000  0.000  1.000
    occupations:
  1.000  0.000  0.000  0.000  0.000
  0.000  1.000  0.000  0.000  0.000
  0.000  0.000  1.000  0.000  0.000
  0.000  0.000  0.000  1.000  0.000
  0.000  0.000  0.000  0.000  1.000
   spin  2
    eigenvalues: 
  0.200  0.200  0.200  0.200  0.200
    eigenvectors:
  1.000  0.000  0.000  0.000  0.000
  0.000  1.000  0.000  0.000  0.000
  0.000  0.000  1.000  0.000  0.000
  0.000  0.000  0.000  1.000  0.000
  0.000  0.000  0.000  0.000  1.000
    occupations:
  0.200  0.000  0.000  0.000  0.000
  0.000  0.200  0.000  0.000  0.000
  0.000  0.000  0.200  0.000  0.000
  0.000  0.000  0.000  0.200  0.000
  0.000  0.000  0.000  0.000  0.200
atomic mag. moment =     4.000000
atom   15   Tr[ns(na)] (up, down, total) =   5.00000  1.00000  6.00000
   spin  1
    eigenvalues: 
  1.000  1.000  1.000  1.000  1.000
    eigenvectors:
  1.000  0.000  0.000  0.000  0.000
  0.000  1.000  0.000  0.000  0.000
  0.000  0.000  1.000  0.000  0.000
  0.000  0.000  0.000  1.000  0.000
  0.000  0.000  0.000  0.000  1.000
    occupations:
  1.000  0.000  0.000  0.000  0.000
  0.000  1.000  0.000  0.000  0.000
  0.000  0.000  1.000  0.000  0.000
  0.000  0.000  0.000  1.000  0.000
  0.000  0.000  0.000  0.000  1.000
   spin  2
    eigenvalues: 
  0.200  0.200  0.200  0.200  0.200
    eigenvectors:
  1.000  0.000  0.000  0.000  0.000
  0.000  1.000  0.000  0.000  0.000
  0.000  0.000  1.000  0.000  0.000
  0.000  0.000  0.000  1.000  0.000
  0.000  0.000  0.000  0.000  1.000
    occupations:
  0.200  0.000  0.000  0.000  0.000
  0.000  0.200  0.000  0.000  0.000
  0.000  0.000  0.200  0.000  0.000
  0.000  0.000  0.000  0.200  0.000
  0.000  0.000  0.000  0.000  0.200
atomic mag. moment =     4.000000
atom   16   Tr[ns(na)] (up, down, total) =   5.00000  1.00000  6.00000
   spin  1
    eigenvalues: 
  1.000  1.000  1.000  1.000  1.000
    eigenvectors:
  1.000  0.000  0.000  0.000  0.000
  0.000  1.000  0.000  0.000  0.000
  0.000  0.000  1.000  0.000  0.000
  0.000  0.000  0.000  1.000  0.000
  0.000  0.000  0.000  0.000  1.000
    occupations:
  1.000  0.000  0.000  0.000  0.000
  0.000  1.000  0.000  0.000  0.000
  0.000  0.000  1.000  0.000  0.000
  0.000  0.000  0.000  1.000  0.000
  0.000  0.000  0.000  0.000  1.000
   spin  2
    eigenvalues: 
  0.200  0.200  0.200  0.200  0.200
    eigenvectors:
  1.000  0.000  0.000  0.000  0.000
  0.000  1.000  0.000  0.000  0.000
  0.000  0.000  1.000  0.000  0.000
  0.000  0.000  0.000  1.000  0.000
  0.000  0.000  0.000  0.000  1.000
    occupations:
  0.200  0.000  0.000  0.000  0.000
  0.000  0.200  0.000  0.000  0.000
  0.000  0.000  0.200  0.000  0.000
  0.000  0.000  0.000  0.200  0.000
  0.000  0.000  0.000  0.000  0.200
atomic mag. moment =     4.000000
atom   17   Tr[ns(na)] (up, down, total) =   5.00000  1.00000  6.00000
   spin  1
    eigenvalues: 
  1.000  1.000  1.000  1.000  1.000
    eigenvectors:
  1.000  0.000  0.000  0.000  0.000
  0.000  1.000  0.000  0.000  0.000
  0.000  0.000  1.000  0.000  0.000
  0.000  0.000  0.000  1.000  0.000
  0.000  0.000  0.000  0.000  1.000
    occupations:
  1.000  0.000  0.000  0.000  0.000
  0.000  1.000  0.000  0.000  0.000
  0.000  0.000  1.000  0.000  0.000
  0.000  0.000  0.000  1.000  0.000
  0.000  0.000  0.000  0.000  1.000
   spin  2
    eigenvalues: 
  0.200  0.200  0.200  0.200  0.200
    eigenvectors:
  1.000  0.000  0.000  0.000  0.000
  0.000  1.000  0.000  0.000  0.000
  0.000  0.000  1.000  0.000  0.000
  0.000  0.000  0.000  1.000  0.000
  0.000  0.000  0.000  0.000  1.000
    occupations:
  0.200  0.000  0.000  0.000  0.000
  0.000  0.200  0.000  0.000  0.000
  0.000  0.000  0.200  0.000  0.000
  0.000  0.000  0.000  0.200  0.000
  0.000  0.000  0.000  0.000  0.200
atomic mag. moment =     4.000000
atom   18   Tr[ns(na)] (up, down, total) =   5.00000  1.00000  6.00000
   spin  1
    eigenvalues: 
  1.000  1.000  1.000  1.000  1.000
    eigenvectors:
  1.000  0.000  0.000  0.000  0.000
  0.000  1.000  0.000  0.000  0.000
  0.000  0.000  1.000  0.000  0.000
  0.000  0.000  0.000  1.000  0.000
  0.000  0.000  0.000  0.000  1.000
    occupations:
  1.000  0.000  0.000  0.000  0.000
  0.000  1.000  0.000  0.000  0.000
  0.000  0.000  1.000  0.000  0.000
  0.000  0.000  0.000  1.000  0.000
  0.000  0.000  0.000  0.000  1.000
   spin  2
    eigenvalues: 
  0.200  0.200  0.200  0.200  0.200
    eigenvectors:
  1.000  0.000  0.000  0.000  0.000
  0.000  1.000  0.000  0.000  0.000
  0.000  0.000  1.000  0.000  0.000
  0.000  0.000  0.000  1.000  0.000
  0.000  0.000  0.000  0.000  1.000
    occupations:
  0.200  0.000  0.000  0.000  0.000
  0.000  0.200  0.000  0.000  0.000
  0.000  0.000  0.200  0.000  0.000
  0.000  0.000  0.000  0.200  0.000
  0.000  0.000  0.000  0.000  0.200
atomic mag. moment =     4.000000
atom   19   Tr[ns(na)] (up, down, total) =   5.00000  1.00000  6.00000
   spin  1
    eigenvalues: 
  1.000  1.000  1.000  1.000  1.000
    eigenvectors:
  1.000  0.000  0.000  0.000  0.000
  0.000  1.000  0.000  0.000  0.000
  0.000  0.000  1.000  0.000  0.000
  0.000  0.000  0.000  1.000  0.000
  0.000  0.000  0.000  0.000  1.000
    occupations:
  1.000  0.000  0.000  0.000  0.000
  0.000  1.000  0.000  0.000  0.000
  0.000  0.000  1.000  0.000  0.000
  0.000  0.000  0.000  1.000  0.000
  0.000  0.000  0.000  0.000  1.000
   spin  2
    eigenvalues: 
  0.200  0.200  0.200  0.200  0.200
    eigenvectors:
  1.000  0.000  0.000  0.000  0.000
  0.000  1.000  0.000  0.000  0.000
  0.000  0.000  1.000  0.000  0.000
  0.000  0.000  0.000  1.000  0.000
  0.000  0.000  0.000  0.000  1.000
    occupations:
  0.200  0.000  0.000  0.000  0.000
  0.000  0.200  0.000  0.000  0.000
  0.000  0.000  0.200  0.000  0.000
  0.000  0.000  0.000  0.200  0.000
  0.000  0.000  0.000  0.000  0.200
atomic mag. moment =     4.000000
atom   20   Tr[ns(na)] (up, down, total) =   5.00000  1.00000  6.00000
   spin  1
    eigenvalues: 
  1.000  1.000  1.000  1.000  1.000
    eigenvectors:
  1.000  0.000  0.000  0.000  0.000
  0.000  1.000  0.000  0.000  0.000
  0.000  0.000  1.000  0.000  0.000
  0.000  0.000  0.000  1.000  0.000
  0.000  0.000  0.000  0.000  1.000
    occupations:
  1.000  0.000  0.000  0.000  0.000
  0.000  1.000  0.000  0.000  0.000
  0.000  0.000  1.000  0.000  0.000
  0.000  0.000  0.000  1.000  0.000
  0.000  0.000  0.000  0.000  1.000
   spin  2
    eigenvalues: 
  0.200  0.200  0.200  0.200  0.200
    eigenvectors:
  1.000  0.000  0.000  0.000  0.000
  0.000  1.000  0.000  0.000  0.000
  0.000  0.000  1.000  0.000  0.000
  0.000  0.000  0.000  1.000  0.000
  0.000  0.000  0.000  0.000  1.000
    occupations:
  0.200  0.000  0.000  0.000  0.000
  0.000  0.200  0.000  0.000  0.000
  0.000  0.000  0.200  0.000  0.000
  0.000  0.000  0.000  0.200  0.000
  0.000  0.000  0.000  0.000  0.200
atomic mag. moment =     4.000000
N of occupied +U levels = 120.0000000
 --- exit write_ns ---
 Atomic wfc used for LDA+U Projector are NOT orthogonalized
     Starting wfc are  272 randomized atomic wfcs
     Checking if some PAW data can be deallocated... 
       node    0, deallocated PAW data for type:  2
       node    0, deallocated PAW data for type:  3
       node    1, deallocated PAW data for type:  2
       node    1, deallocated PAW data for type:  3
       node    2, deallocated PAW data for type:  2
       node    2, deallocated PAW data for type:  3
       node    3, deallocated PAW data for type:  2
       node    3, deallocated PAW data for type:  3
       node    4, deallocated PAW data for type:  2
       node    4, deallocated PAW data for type:  3
       node    5, deallocated PAW data for type:  2
       node    5, deallocated PAW data for type:  3
       node    6, deallocated PAW data for type:  2
       node    6, deallocated PAW data for type:  3
       node    7, deallocated PAW data for type:  2
       node    7, deallocated PAW data for type:  3
       node    8, deallocated PAW data for type:  2
       node    8, deallocated PAW data for type:  3
       node    9, deallocated PAW data for type:  2
       node    9, deallocated PAW data for type:  3
       node   10, deallocated PAW data for type:  2
       node   10, deallocated PAW data for type:  3
       node   11, deallocated PAW data for type:  2
       node   11, deallocated PAW data for type:  3
       node   12, deallocated PAW data for type:  2
       node   12, deallocated PAW data for type:  3
       node   13, deallocated PAW data for type:  2
       node   13, deallocated PAW data for type:  3
       node   14, deallocated PAW data for type:  2
       node   14, deallocated PAW data for type:  3
       node   15, deallocated PAW data for type:  2
       node   15, deallocated PAW data for type:  3
       node   16, deallocated PAW data for type:  2
       node   16, deallocated PAW data for type:  3
       node   17, deallocated PAW data for type:  2
       node   17, deallocated PAW data for type:  3
       node   18, deallocated PAW data for type:  2
       node   18, deallocated PAW data for type:  3
       node   19, deallocated PAW data for type:  2
       node   19, deallocated PAW data for type:  3
       node   20, deallocated PAW data for type:  2
       node   20, deallocated PAW data for type:  3
       node   21, deallocated PAW data for type:  2
       node   21, deallocated PAW data for type:  3
       node   22, deallocated PAW data for type:  2
       node   22, deallocated PAW data for type:  3
       node   23, deallocated PAW data for type:  2
       node   23, deallocated PAW data for type:  3
       node   24, deallocated PAW data for type:  2
       node   24, deallocated PAW data for type:  3
       node   25, deallocated PAW data for type:  2
       node   25, deallocated PAW data for type:  3
       node   26, deallocated PAW data for type:  2
       node   26, deallocated PAW data for type:  3
       node   27, deallocated PAW data for type:  2
       node   27, deallocated PAW data for type:  3
       node   28, deallocated PAW data for type:  2
       node   28, deallocated PAW data for type:  3
       node   29, deallocated PAW data for type:  2
       node   29, deallocated PAW data for type:  3
       node   30, deallocated PAW data for type:  2
       node   30, deallocated PAW data for type:  3
       node   31, deallocated PAW data for type:  2
       node   31, deallocated PAW data for type:  3
       node   32, deallocated PAW data for type:  2
       node   32, deallocated PAW data for type:  3
       node   33, deallocated PAW data for type:  2
       node   33, deallocated PAW data for type:  3
       node   34, deallocated PAW data for type:  2
       node   34, deallocated PAW data for type:  3
       node   35, deallocated PAW data for type:  2
       node   35, deallocated PAW data for type:  3
       node   36, deallocated PAW data for type:  2
       node   36, deallocated PAW data for type:  3
       node   37, deallocated PAW data for type:  2
       node   37, deallocated PAW data for type:  3
       node   38, deallocated PAW data for type:  2
       node   38, deallocated PAW data for type:  3
       node   39, deallocated PAW data for type:  2
       node   39, deallocated PAW data for type:  3
       node   40, deallocated PAW data for type:  2
       node   40, deallocated PAW data for type:  3
       node   41, deallocated PAW data for type:  2
       node   41, deallocated PAW data for type:  3
       node   42, deallocated PAW data for type:  1
       node   42, deallocated PAW data for type:  2
       node   43, deallocated PAW data for type:  1
       node   43, deallocated PAW data for type:  2
       node   44, deallocated PAW data for type:  1
       node   44, deallocated PAW data for type:  3
       node   45, deallocated PAW data for type:  1
       node   45, deallocated PAW data for type:  3
       node   46, deallocated PAW data for type:  1
       node   46, deallocated PAW data for type:  2
       node   47, deallocated PAW data for type:  1
       node   47, deallocated PAW data for type:  2

     total cpu time spent up to now is       44.1 secs

     per-process dynamical memory:   319.9 Mb

     Self-consistent Calculation

     iteration #  1     ecut=    95.00 Ry     beta=0.50
     Davidson diagonalization with overlap
     ethr =  1.00E-02,  avg # of iterations =  3.0
 --- enter write_ns ---
 LDA+U parameters:
U( 1)     =  0.00000000
alpha( 1) =  0.00000000
atom    1   Tr[ns(na)] (up, down, total) =   4.97542  1.16981  6.14522
   spin  1
    eigenvalues: 
  0.992  0.995  0.996  0.996  0.997
    eigenvectors:
  0.956  0.009  0.034  0.000  0.000
  0.003  0.396  0.000  0.000  0.601
  0.008  0.592  0.002  0.000  0.397
  0.006  0.000  0.132  0.862  0.000
  0.026  0.002  0.831  0.138  0.002
    occupations:
  0.993 -0.000 -0.000  0.000 -0.001
 -0.000  0.996 -0.001  0.000  0.000
 -0.000 -0.001  0.995  0.000 -0.000
  0.000  0.000  0.000  0.996  0.000
 -0.001  0.000 -0.000  0.000  0.996
   spin  2
    eigenvalues: 
  0.167  0.206  0.231  0.251  0.316
    eigenvectors:
  0.000  0.000  0.987  0.000  0.013
  0.333  0.667  0.000  0.000  0.000
  0.667  0.333  0.000  0.000  0.000
  0.000  0.000  0.001  0.888  0.111
  0.000  0.000  0.012  0.112  0.876
    occupations:
  0.232 -0.000  0.000 -0.003  0.009
 -0.000  0.193 -0.018 -0.000 -0.000
  0.000 -0.018  0.180  0.000 -0.000
 -0.003 -0.000  0.000  0.258 -0.020
  0.009 -0.000 -0.000 -0.020  0.307
atomic mag. moment =     3.805608
atom    2   Tr[ns(na)] (up, down, total) =   4.97568  1.16882  6.14450
   spin  1
    eigenvalues: 
  0.993  0.995  0.996  0.996  0.996
    eigenvectors:
  0.940  0.000  0.048  0.005  0.007
  0.005  0.424  0.005  0.012  0.554
  0.000  0.573  0.008  0.003  0.416
  0.004  0.001  0.000  0.980  0.014
  0.051  0.001  0.939  0.001  0.009
    occupations:
  0.993 -0.000  0.000  0.000 -0.001
 -0.000  0.996 -0.001  0.000  0.000
  0.000 -0.001  0.996 -0.000 -0.000
  0.000  0.000 -0.000  0.996  0.000
 -0.001  0.000 -0.000  0.000  0.996
   spin  2
    eigenvalues: 
  0.167  0.206  0.231  0.250  0.316
    eigenvectors:
  0.000  0.000  0.985  0.000  0.015
  0.334  0.666  0.000  0.000  0.000
  0.666  0.334  0.000  0.000  0.000
  0.000  0.000  0.003  0.888  0.109
  0.000  0.000  0.012  0.112  0.876
    occupations:
  0.232  0.000  0.000 -0.004  0.010
  0.000  0.193 -0.018  0.000  0.000
  0.000 -0.018  0.180 -0.000  0.001
 -0.004  0.000 -0.000  0.257 -0.020
  0.010  0.000  0.001 -0.020  0.307
atomic mag. moment =     3.806860
atom    3   Tr[ns(na)] (up, down, total) =   4.97598  1.16960  6.14558
   spin  1
    eigenvalues: 
  0.993  0.995  0.996  0.996  0.996
    eigenvectors:
  0.944  0.005  0.045  0.004  0.001
  0.003  0.389  0.001  0.015  0.592
  0.002  0.599  0.001  0.038  0.360
  0.008  0.007  0.418  0.541  0.026
  0.042  0.001  0.534  0.402  0.020
    occupations:
  0.993  0.000  0.000  0.000 -0.001
  0.000  0.996 -0.001 -0.000 -0.000
  0.000 -0.001  0.996 -0.000  0.000
  0.000 -0.000 -0.000  0.996  0.000
 -0.001 -0.000  0.000  0.000  0.996
   spin  2
    eigenvalues: 
  0.168  0.205  0.231  0.250  0.316
    eigenvectors:
  0.000  0.000  0.985  0.000  0.015
  0.332  0.668  0.000  0.000  0.000
  0.668  0.332  0.000  0.000  0.000
  0.000  0.000  0.004  0.884  0.112
  0.000  0.000  0.012  0.115  0.873
    occupations:
  0.232 -0.000 -0.000 -0.004  0.010
 -0.000  0.193 -0.018 -0.000 -0.000
 -0.000 -0.018  0.180 -0.000  0.000
 -0.004 -0.000 -0.000  0.258 -0.020
  0.010 -0.000  0.000 -0.020  0.307
atomic mag. moment =     3.806377
atom    4   Tr[ns(na)] (up, down, total) =   4.97547  1.16672  6.14219
   spin  1
    eigenvalues: 
  0.992  0.995  0.996  0.996  0.997
    eigenvectors:
  0.970  0.002  0.024  0.001  0.003
  0.004  0.371  0.002  0.001  0.621
  0.000  0.617  0.014  0.003  0.366
  0.003  0.009  0.229  0.756  0.003
  0.023  0.001  0.730  0.238  0.007
    occupations:
  0.992  0.000  0.000  0.000 -0.001
  0.000  0.996 -0.001  0.000 -0.000
  0.000 -0.001  0.995  0.000  0.000
  0.000  0.000  0.000  0.996  0.000
 -0.001 -0.000  0.000  0.000  0.996
   spin  2
    eigenvalues: 
  0.166  0.205  0.230  0.250  0.315
    eigenvectors:
  0.000  0.000  0.986  0.000  0.014
  0.336  0.663  0.000  0.000  0.000
  0.664  0.336  0.000  0.000  0.000
  0.000  0.000  0.001  0.891  0.108
  0.000  0.000  0.013  0.109  0.878
    occupations:
  0.231 -0.001 -0.000 -0.003  0.009
 -0.001  0.192 -0.019 -0.000  0.000
 -0.000 -0.019  0.179  0.000 -0.000
 -0.003 -0.000  0.000  0.257 -0.020
  0.009  0.000 -0.000 -0.020  0.307
atomic mag. moment =     3.808745
atom    5   Tr[ns(na)] (up, down, total) =   4.97587  2.12863  7.10450
   spin  1
    eigenvalues: 
  0.994  0.994  0.995  0.996  0.996
    eigenvectors:
  0.802  0.181  0.000  0.008  0.008
  0.000  0.004  0.273  0.451  0.271
  0.002  0.005  0.708  0.125  0.160
  0.193  0.663  0.005  0.063  0.077
  0.003  0.147  0.014  0.353  0.484
    occupations:
  0.994 -0.000  0.000  0.000 -0.000
 -0.000  0.996 -0.000 -0.000 -0.000
  0.000 -0.000  0.996 -0.000  0.000
  0.000 -0.000 -0.000  0.995 -0.001
 -0.000 -0.000  0.000 -0.001  0.996
   spin  2
    eigenvalues: 
  0.372  0.374  0.455  0.460  0.468
    eigenvectors:
  0.235  0.004  0.006  0.753  0.003
  0.011  0.655  0.331  0.003  0.001
  0.005  0.329  0.660  0.005  0.001
  0.084  0.002  0.001  0.011  0.902
  0.665  0.011  0.003  0.228  0.093
    occupations:
  0.439  0.000 -0.000 -0.013  0.035
  0.000  0.401  0.038 -0.000 -0.001
 -0.000  0.038  0.428 -0.000 -0.000
 -0.013 -0.000 -0.000  0.460  0.024
  0.035 -0.001 -0.000  0.024  0.401
atomic mag. moment =     2.847237
atom    6   Tr[ns(na)] (up, down, total) =   4.97533  2.12845  7.10378
   spin  1
    eigenvalues: 
  0.994  0.994  0.995  0.996  0.996
    eigenvectors:
  0.955  0.036  0.000  0.000  0.009
  0.000  0.007  0.416  0.548  0.029
  0.001  0.015  0.561  0.398  0.024
  0.043  0.825  0.021  0.009  0.102
  0.000  0.117  0.002  0.045  0.836
    occupations:
  0.994 -0.000  0.000  0.000 -0.000
 -0.000  0.996 -0.000 -0.000 -0.000
  0.000 -0.000  0.996 -0.000 -0.000
  0.000 -0.000 -0.000  0.995 -0.001
 -0.000 -0.000 -0.000 -0.001  0.996
   spin  2
    eigenvalues: 
  0.373  0.374  0.456  0.458  0.468
    eigenvectors:
  0.228  0.015  0.000  0.756  0.000
  0.039  0.627  0.334  0.000  0.000
  0.022  0.313  0.666  0.000  0.000
  0.078  0.004  0.000  0.030  0.888
  0.633  0.041  0.000  0.214  0.112
    occupations:
  0.437  0.000  0.000 -0.012  0.034
  0.000  0.401  0.039 -0.000 -0.000
  0.000  0.039  0.428  0.000 -0.000
 -0.012 -0.000  0.000  0.460  0.023
  0.034 -0.000 -0.000  0.023  0.402
atomic mag. moment =     2.846883
atom    7   Tr[ns(na)] (up, down, total) =   4.97572  2.13109  7.10681
   spin  1
    eigenvalues: 
  0.994  0.994  0.995  0.996  0.996
    eigenvectors:
  0.690  0.243  0.001  0.005  0.060
  0.000  0.008  0.259  0.608  0.126
  0.002  0.011  0.721  0.231  0.035
  0.308  0.540  0.013  0.022  0.118
  0.000  0.198  0.007  0.134  0.661
    occupations:
  0.994  0.000 -0.000  0.000 -0.000
  0.000  0.996 -0.000  0.000 -0.000
 -0.000 -0.000  0.995  0.000  0.000
  0.000  0.000  0.000  0.994 -0.001
 -0.000 -0.000  0.000 -0.001  0.996
   spin  2
    eigenvalues: 
  0.373  0.374  0.457  0.460  0.468
    eigenvectors:
  0.223  0.011  0.044  0.722  0.000
  0.032  0.632  0.317  0.020  0.000
  0.017  0.319  0.626  0.037  0.000
  0.081  0.004  0.003  0.030  0.882
  0.647  0.034  0.010  0.191  0.118
    occupations:
  0.439  0.000  0.000 -0.012  0.035
  0.000  0.402  0.039 -0.000  0.000
  0.000  0.039  0.429 -0.000  0.000
 -0.012 -0.000 -0.000  0.459  0.024
  0.035  0.000  0.000  0.024  0.401
atomic mag. moment =     2.844628
atom    8   Tr[ns(na)] (up, down, total) =   4.97569  2.13098  7.10667
   spin  1
    eigenvalues: 
  0.994  0.994  0.995  0.996  0.996
    eigenvectors:
  0.792  0.160  0.001  0.038  0.009
  0.003  0.004  0.327  0.134  0.532
  0.005  0.007  0.654  0.063  0.271
  0.198  0.680  0.015  0.087  0.020
  0.003  0.150  0.002  0.679  0.167
    occupations:
  0.994 -0.000 -0.000  0.000 -0.000
 -0.000  0.996 -0.001  0.000  0.000
 -0.000 -0.001  0.995  0.000 -0.000
  0.000  0.000  0.000  0.994 -0.001
 -0.000  0.000 -0.000 -0.001  0.996
   spin  2
    eigenvalues: 
  0.373  0.374  0.458  0.459  0.468
    eigenvectors:
  0.217  0.019  0.018  0.747  0.000
  0.052  0.615  0.324  0.008  0.000
  0.027  0.306  0.651  0.016  0.000
  0.078  0.006  0.001  0.023  0.891
  0.626  0.054  0.005  0.206  0.109
    occupations:
  0.439 -0.000 -0.000 -0.012  0.035
 -0.000  0.401  0.040  0.000 -0.000
 -0.000  0.040  0.430 -0.000  0.000
 -0.012  0.000 -0.000  0.460  0.023
  0.035 -0.000  0.000  0.023  0.401
atomic mag. moment =     2.844713
atom    9   Tr[ns(na)] (up, down, total) =   4.97612  2.15204  7.12816
   spin  1
    eigenvalues: 
  0.994  0.994  0.995  0.996  0.996
    eigenvectors:
  0.732  0.030  0.030  0.207  0.002
  0.011  0.000  0.320  0.005  0.664
  0.028  0.001  0.640  0.001  0.331
  0.002  0.914  0.001  0.083  0.001
  0.227  0.055  0.010  0.705  0.003
    occupations:
  0.995  0.000  0.000  0.000 -0.001
  0.000  0.996 -0.001 -0.000  0.000
  0.000 -0.001  0.995  0.000  0.000
  0.000 -0.000  0.000  0.995 -0.000
 -0.001  0.000  0.000 -0.000  0.996
   spin  2
    eigenvalues: 
  0.374  0.375  0.465  0.466  0.473
    eigenvectors:
  0.003  0.270  0.048  0.202  0.478
  0.671  0.005  0.060  0.151  0.113
  0.321  0.003  0.125  0.322  0.229
  0.000  0.077  0.600  0.315  0.008
  0.005  0.645  0.168  0.010  0.172
    occupations:
  0.444  0.002  0.002 -0.014  0.040
  0.002  0.404  0.044 -0.000  0.001
  0.002  0.044  0.438  0.000  0.001
 -0.014 -0.000  0.000  0.458  0.020
  0.040  0.001  0.001  0.020  0.408
atomic mag. moment =     2.824081
atom   10   Tr[ns(na)] (up, down, total) =   4.97593  2.12024  7.09617
   spin  1
    eigenvalues: 
  0.994  0.994  0.995  0.996  0.996
    eigenvectors:
  0.789  0.005  0.006  0.013  0.186
  0.004  0.006  0.271  0.682  0.037
  0.003  0.013  0.702  0.275  0.007
  0.010  0.868  0.018  0.004  0.100
  0.194  0.107  0.003  0.026  0.670
    occupations:
  0.994 -0.000 -0.000  0.000 -0.001
 -0.000  0.996 -0.000 -0.000 -0.000
 -0.000 -0.000  0.995 -0.000 -0.000
  0.000 -0.000 -0.000  0.995 -0.000
 -0.001 -0.000 -0.000 -0.000  0.996
   spin  2
    eigenvalues: 
  0.374  0.375  0.449  0.460  0.462
    eigenvectors:
  0.115  0.142  0.009  0.646  0.088
  0.395  0.282  0.314  0.003  0.006
  0.186  0.136  0.666  0.003  0.009
  0.032  0.050  0.010  0.032  0.876
  0.273  0.389  0.001  0.317  0.021
    occupations:
  0.438  0.002  0.000 -0.013  0.035
  0.002  0.399  0.035 -0.001  0.000
  0.000  0.035  0.425 -0.001  0.000
 -0.013 -0.001 -0.001  0.454  0.020
  0.035  0.000  0.000  0.020  0.404
atomic mag. moment =     2.855686
atom   11   Tr[ns(na)] (up, down, total) =   4.97587  2.12888  7.10475
   spin  1
    eigenvalues: 
  0.994  0.995  0.995  0.996  0.996
    eigenvectors:
  0.786  0.028  0.016  0.000  0.169
  0.000  0.001  0.364  0.628  0.007
  0.018  0.002  0.618  0.360  0.001
  0.083  0.858  0.000  0.002  0.057
  0.112  0.111  0.002  0.010  0.765
    occupations:
  0.994  0.000 -0.000  0.000 -0.001
  0.000  0.996 -0.000 -0.000 -0.000
 -0.000 -0.000  0.995  0.000 -0.000
  0.000 -0.000  0.000  0.995 -0.000
 -0.001 -0.000 -0.000 -0.000  0.996
   spin  2
    eigenvalues: 
  0.374  0.376  0.454  0.462  0.463
    eigenvectors:
  0.041  0.223  0.013  0.317  0.406
  0.567  0.094  0.331  0.006  0.002
  0.293  0.046  0.650  0.008  0.003
  0.009  0.071  0.004  0.664  0.253
  0.090  0.566  0.002  0.005  0.336
    occupations:
  0.440 -0.001  0.000 -0.012  0.036
 -0.001  0.401  0.038  0.001 -0.000
  0.000  0.038  0.427  0.000 -0.001
 -0.012  0.001  0.000  0.456  0.020
  0.036 -0.000 -0.001  0.020  0.406
atomic mag. moment =     2.846990
atom   12   Tr[ns(na)] (up, down, total) =   4.97619  2.17177  7.14795
   spin  1
    eigenvalues: 
  0.994  0.995  0.995  0.996  0.996
    eigenvectors:
  0.817  0.045  0.002  0.099  0.036
  0.004  0.085  0.239  0.124  0.548
  0.012  0.125  0.533  0.097  0.232
  0.005  0.710  0.218  0.059  0.007
  0.161  0.034  0.009  0.620  0.176
    occupations:
  0.994 -0.000  0.000  0.000 -0.001
 -0.000  0.996 -0.001  0.000  0.000
  0.000 -0.001  0.995  0.000  0.000
  0.000  0.000  0.000  0.995 -0.000
 -0.001  0.000  0.000 -0.000  0.996
   spin  2
    eigenvalues: 
  0.375  0.376  0.467  0.474  0.479
    eigenvectors:
  0.012  0.252  0.003  0.141  0.591
  0.638  0.030  0.004  0.261  0.066
  0.320  0.012  0.012  0.532  0.125
  0.002  0.082  0.889  0.004  0.023
  0.027  0.624  0.092  0.062  0.195
    occupations:
  0.451 -0.001 -0.001 -0.015  0.043
 -0.001  0.408  0.047  0.002 -0.001
 -0.001  0.047  0.442  0.001 -0.001
 -0.015  0.002  0.001  0.460  0.021
  0.043 -0.001 -0.001  0.021  0.410
atomic mag. moment =     2.804419
atom   13   Tr[ns(na)] (up, down, total) =   4.97751  2.12895  7.10646
   spin  1
    eigenvalues: 
  0.994  0.995  0.995  0.996  0.997
    eigenvectors:
  0.007  0.609  0.019  0.106  0.259
  0.000  0.004  0.295  0.460  0.241
  0.003  0.036  0.665  0.175  0.121
  0.932  0.004  0.005  0.029  0.030
  0.058  0.347  0.016  0.230  0.349
    occupations:
  0.996 -0.000  0.000  0.000 -0.001
 -0.000  0.996 -0.001 -0.000  0.000
  0.000 -0.001  0.996 -0.000 -0.000
  0.000 -0.000 -0.000  0.994 -0.000
 -0.001  0.000 -0.000 -0.000  0.996
   spin  2
    eigenvalues: 
  0.363  0.368  0.449  0.466  0.483
    eigenvectors:
  0.354  0.018  0.437  0.003  0.188
  0.037  0.636  0.087  0.008  0.232
  0.011  0.316  0.182  0.010  0.480
  0.068  0.002  0.002  0.899  0.029
  0.530  0.028  0.291  0.080  0.070
    occupations:
  0.424  0.008  0.011 -0.017  0.043
  0.008  0.402  0.050  0.000  0.004
  0.011  0.050  0.439 -0.003  0.006
 -0.017  0.000 -0.003  0.459  0.020
  0.043  0.004  0.006  0.020  0.405
atomic mag. moment =     2.848557
atom   14   Tr[ns(na)] (up, down, total) =   4.97691  2.26267  7.23958
   spin  1
    eigenvalues: 
  0.994  0.994  0.995  0.997  0.997
    eigenvectors:
  0.698  0.038  0.153  0.110  0.000
  0.078  0.049  0.289  0.007  0.576
  0.123  0.070  0.389  0.000  0.418
  0.012  0.755  0.169  0.063  0.001
  0.088  0.088  0.000  0.819  0.005
    occupations:
  0.994  0.000  0.000  0.000 -0.001
  0.000  0.996 -0.001 -0.000  0.000
  0.000 -0.001  0.996 -0.000  0.000
  0.000 -0.000 -0.000  0.995 -0.001
 -0.001  0.000  0.000 -0.001  0.996
   spin  2
    eigenvalues: 
  0.379  0.381  0.491  0.500  0.512
    eigenvectors:
  0.019  0.199  0.019  0.688  0.074
  0.606  0.055  0.012  0.027  0.299
  0.304  0.034  0.042  0.049  0.571
  0.004  0.094  0.764  0.126  0.011
  0.066  0.617  0.163  0.109  0.044
    occupations:
  0.475  0.001  0.002 -0.018  0.046
  0.001  0.423  0.062  0.004  0.004
  0.002  0.062  0.466  0.000  0.003
 -0.018  0.004  0.000  0.481  0.028
  0.046  0.004  0.003  0.028  0.418
atomic mag. moment =     2.714236
atom   15   Tr[ns(na)] (up, down, total) =   4.97527  2.03079  7.00606
   spin  1
    eigenvalues: 
  0.994  0.994  0.995  0.996  0.996
    eigenvectors:
  0.970  0.009  0.007  0.000  0.014
  0.000  0.025  0.091  0.869  0.015
  0.000  0.145  0.693  0.128  0.033
  0.006  0.789  0.116  0.000  0.089
  0.023  0.032  0.092  0.003  0.849
    occupations:
  0.994 -0.000 -0.000  0.000 -0.000
 -0.000  0.996  0.000 -0.000  0.000
 -0.000  0.000  0.995  0.000 -0.000
  0.000 -0.000  0.000  0.995 -0.000
 -0.000  0.000 -0.000 -0.000  0.996
   spin  2
    eigenvalues: 
  0.368  0.373  0.409  0.433  0.447
    eigenvectors:
  0.242  0.028  0.002  0.719  0.010
  0.064  0.502  0.431  0.002  0.000
  0.034  0.400  0.563  0.003  0.000
  0.054  0.004  0.000  0.001  0.940
  0.605  0.066  0.004  0.275  0.050
    occupations:
  0.416  0.002  0.001 -0.009  0.027
  0.002  0.389  0.018  0.001 -0.001
  0.001  0.018  0.394 -0.000  0.001
 -0.009  0.001 -0.000  0.442  0.016
  0.027 -0.001  0.001  0.016  0.391
atomic mag. moment =     2.944473
atom   16   Tr[ns(na)] (up, down, total) =   4.97595  2.08044  7.05638
   spin  1
    eigenvalues: 
  0.994  0.995  0.995  0.996  0.997
    eigenvectors:
  0.947  0.015  0.012  0.000  0.027
  0.000  0.124  0.763  0.022  0.091
  0.004  0.027  0.049  0.751  0.168
  0.011  0.802  0.098  0.036  0.052
  0.038  0.032  0.077  0.191  0.662
    occupations:
  0.994  0.000 -0.000 -0.000 -0.000
  0.000  0.995 -0.000  0.000 -0.000
 -0.000 -0.000  0.996  0.000  0.000
 -0.000  0.000  0.000  0.995 -0.000
 -0.000 -0.000  0.000 -0.000  0.996
   spin  2
    eigenvalues: 
  0.371  0.374  0.428  0.446  0.461
    eigenvectors:
  0.173  0.040  0.013  0.774  0.000
  0.101  0.622  0.273  0.002  0.003
  0.072  0.209  0.702  0.007  0.009
  0.101  0.019  0.009  0.022  0.848
  0.552  0.110  0.003  0.196  0.139
    occupations:
  0.430  0.000  0.000 -0.012  0.028
  0.000  0.389  0.025  0.002 -0.000
  0.000  0.025  0.413  0.005 -0.003
 -0.012  0.002  0.005  0.450  0.026
  0.028 -0.000 -0.003  0.026  0.398
atomic mag. moment =     2.895512
atom   17   Tr[ns(na)] (up, down, total) =   4.95862  1.73551  6.69412
   spin  1
    eigenvalues: 
  0.977  0.992  0.995  0.996  0.997
    eigenvectors:
  0.309  0.567  0.028  0.094  0.003
  0.291  0.105  0.034  0.042  0.529
  0.302  0.023  0.149  0.093  0.433
  0.000  0.056  0.258  0.685  0.000
  0.098  0.249  0.531  0.087  0.035
    occupations:
  0.988  0.005  0.005  0.001 -0.002
  0.005  0.991 -0.006  0.001  0.004
  0.005 -0.006  0.991  0.000  0.003
  0.001  0.001  0.000  0.996 -0.000
 -0.002  0.004  0.003 -0.000  0.993
   spin  2
    eigenvalues: 
  0.252  0.302  0.358  0.369  0.455
    eigenvectors:
  0.007  0.300  0.108  0.006  0.579
  0.395  0.258  0.110  0.063  0.174
  0.555  0.232  0.000  0.049  0.164
  0.026  0.200  0.429  0.338  0.007
  0.017  0.009  0.353  0.545  0.077
    occupations:
  0.397 -0.041 -0.051 -0.018  0.018
 -0.041  0.319  0.053 -0.022 -0.020
 -0.051  0.053  0.302  0.002 -0.001
 -0.018 -0.022  0.002  0.348 -0.012
  0.018 -0.020 -0.001 -0.012  0.369
atomic mag. moment =     3.223108
atom   18   Tr[ns(na)] (up, down, total) =   4.97074  1.23270  6.20344
   spin  1
    eigenvalues: 
  0.987  0.995  0.996  0.996  0.997
    eigenvectors:
  0.558  0.090  0.104  0.089  0.158
  0.408  0.041  0.201  0.259  0.090
  0.000  0.500  0.104  0.060  0.335
  0.032  0.265  0.157  0.189  0.357
  0.001  0.104  0.433  0.402  0.059
    occupations:
  0.991  0.005 -0.000 -0.001  0.000
  0.005  0.992 -0.000  0.001 -0.000
 -0.000 -0.000  0.996  0.000  0.000
 -0.001  0.001  0.000  0.996 -0.000
  0.000 -0.000  0.000 -0.000  0.996
   spin  2
    eigenvalues: 
  0.171  0.197  0.268  0.293  0.303
    eigenvectors:
  0.068  0.363  0.088  0.025  0.456
  0.305  0.278  0.139  0.001  0.276
  0.627  0.318  0.032  0.005  0.018
  0.000  0.034  0.628  0.166  0.171
  0.000  0.007  0.112  0.803  0.079
    occupations:
  0.252 -0.049  0.007  0.019 -0.001
 -0.049  0.228 -0.024 -0.001 -0.009
  0.007 -0.024  0.185 -0.007  0.006
  0.019 -0.001 -0.007  0.276 -0.004
 -0.001 -0.009  0.006 -0.004  0.291
atomic mag. moment =     3.738030
atom   19   Tr[ns(na)] (up, down, total) =   4.96267  1.29527  6.25794
   spin  1
    eigenvalues: 
  0.983  0.992  0.995  0.996  0.997
    eigenvectors:
  0.923  0.029  0.018  0.013  0.017
  0.000  0.468  0.122  0.002  0.408
  0.008  0.019  0.830  0.013  0.131
  0.003  0.223  0.000  0.576  0.198
  0.066  0.261  0.030  0.397  0.247
    occupations:
  0.984 -0.001 -0.001  0.000 -0.003
 -0.001  0.994 -0.000 -0.001  0.002
 -0.001 -0.000  0.995  0.000 -0.001
  0.000 -0.001  0.000  0.995  0.001
 -0.003  0.002 -0.001  0.001  0.994
   spin  2
    eigenvalues: 
  0.178  0.228  0.267  0.292  0.329
    eigenvectors:
  0.006  0.007  0.001  0.379  0.607
  0.206  0.721  0.032  0.041  0.000
  0.783  0.213  0.000  0.001  0.004
  0.005  0.036  0.944  0.009  0.005
  0.000  0.022  0.022  0.570  0.385
    occupations:
  0.314  0.009  0.007 -0.003  0.019
  0.009  0.222 -0.021  0.010 -0.010
  0.007 -0.021  0.189  0.002  0.004
 -0.003  0.010  0.002  0.266 -0.003
  0.019 -0.010  0.004 -0.003  0.305
atomic mag. moment =     3.667398
atom   20   Tr[ns(na)] (up, down, total) =   4.96881  1.44292  6.41173
   spin  1
    eigenvalues: 
  0.988  0.991  0.996  0.996  0.997
    eigenvectors:
  0.603  0.004  0.015  0.059  0.319
  0.331  0.011  0.142  0.000  0.515
  0.001  0.510  0.115  0.304  0.071
  0.057  0.301  0.020  0.621  0.002
  0.009  0.174  0.708  0.016  0.093
    occupations:
  0.992 -0.004  0.000 -0.001 -0.001
 -0.004  0.994 -0.000 -0.001 -0.000
  0.000 -0.000  0.994  0.002 -0.001
 -0.001 -0.001  0.002  0.994  0.001
 -0.001 -0.000 -0.001  0.001  0.995
   spin  2
    eigenvalues: 
  0.222  0.239  0.304  0.326  0.352
    eigenvectors:
  0.222  0.001  0.472  0.135  0.170
  0.735  0.048  0.175  0.008  0.034
  0.010  0.694  0.086  0.202  0.008
  0.029  0.248  0.030  0.653  0.041
  0.005  0.008  0.237  0.002  0.748
    occupations:
  0.297  0.037  0.004  0.010  0.020
  0.037  0.243  0.005 -0.005  0.004
  0.004  0.005  0.263 -0.037 -0.002
  0.010 -0.005 -0.037  0.302 -0.012
  0.020  0.004 -0.002 -0.012  0.339
atomic mag. moment =     3.525886
N of occupied +U levels = 135.4520031
 --- exit write_ns ---

     negative rho (up, down):  0.000E+00 0.272E-03
 --- in v_hubbard ---
Hubbard energy    0.0000
 -------

     total cpu time spent up to now is      127.9 secs

     total energy              =   -6681.55528339 Ry
     Harris-Foulkes estimate   =   -6671.57575614 Ry
     estimated scf accuracy    <      29.75767125 Ry

     total magnetization       =    68.03 Bohr mag/cell
     absolute magnetization    =    71.25 Bohr mag/cell

     iteration #  2     ecut=    95.00 Ry     beta=0.50
     Davidson diagonalization with overlap
     ethr =  8.86E-03,  avg # of iterations =  1.0
 --- enter write_ns ---
 LDA+U parameters:
U( 1)     =  0.00000000
alpha( 1) =  0.00000000
atom    1   Tr[ns(na)] (up, down, total) =   4.97606  1.90172  6.87778
   spin  1
    eigenvalues: 
  0.993  0.995  0.995  0.995  0.997
    eigenvectors:
  0.905  0.094  0.001  0.000  0.000
  0.000  0.000  0.000  0.390  0.610
  0.000  0.002  0.000  0.608  0.390
  0.015  0.079  0.906  0.000  0.000
  0.080  0.825  0.093  0.002  0.000
    occupations:
  0.993  0.000 -0.000  0.000 -0.001
  0.000  0.996 -0.001 -0.000  0.000
 -0.000 -0.001  0.996  0.000 -0.000
  0.000 -0.000  0.000  0.995  0.000
 -0.001  0.000 -0.000  0.000  0.995
   spin  2
    eigenvalues: 
  0.302  0.319  0.345  0.449  0.485
    eigenvectors:
  0.000  0.000  0.714  0.285  0.000
  0.654  0.345  0.000  0.000  0.000
  0.346  0.654  0.001  0.000  0.000
  0.000  0.000  0.032  0.077  0.891
  0.000  0.000  0.253  0.638  0.109
    occupations:
  0.375  0.000  0.000 -0.016  0.044
  0.000  0.308  0.008 -0.000 -0.000
  0.000  0.008  0.313 -0.000 -0.001
 -0.016 -0.000 -0.000  0.478  0.021
  0.044 -0.000 -0.001  0.021  0.427
atomic mag. moment =     3.074348
atom    2   Tr[ns(na)] (up, down, total) =   4.97616  1.89871  6.87487
   spin  1
    eigenvalues: 
  0.993  0.995  0.995  0.996  0.997
    eigenvectors:
  0.918  0.081  0.001  0.000  0.000
  0.000  0.001  0.103  0.253  0.643
  0.000  0.001  0.161  0.481  0.356
  0.006  0.093  0.652  0.249  0.000
  0.076  0.824  0.083  0.017  0.000
    occupations:
  0.993  0.000  0.000  0.000 -0.001
  0.000  0.996 -0.001  0.000  0.000
  0.000 -0.001  0.996  0.000  0.000
  0.000  0.000  0.000  0.995  0.000
 -0.001  0.000  0.000  0.000  0.995
   spin  2
    eigenvalues: 
  0.302  0.318  0.344  0.450  0.485
    eigenvectors:
  0.000  0.000  0.711  0.288  0.000
  0.641  0.359  0.000  0.000  0.000
  0.359  0.641  0.000  0.000  0.000
  0.000  0.000  0.033  0.075  0.892
  0.000  0.000  0.255  0.637  0.108
    occupations:
  0.375  0.000  0.000 -0.016  0.045
  0.000  0.308  0.008 -0.000  0.000
  0.000  0.008  0.312  0.000  0.000
 -0.016 -0.000  0.000  0.477  0.021
  0.045  0.000  0.000  0.021  0.427
atomic mag. moment =     3.077445
atom    3   Tr[ns(na)] (up, down, total) =   4.97631  1.89705  6.87336
   spin  1
    eigenvalues: 
  0.993  0.995  0.995  0.996  0.997
    eigenvectors:
  0.912  0.087  0.001  0.000  0.000
  0.000  0.003  0.332  0.046  0.619
  0.000  0.008  0.517  0.094  0.381
  0.010  0.166  0.090  0.733  0.000
  0.078  0.736  0.060  0.126  0.000
    occupations:
  0.993  0.000  0.000  0.000 -0.001
  0.000  0.996 -0.001 -0.000 -0.000
  0.000 -0.001  0.996 -0.000  0.000
  0.000 -0.000 -0.000  0.995  0.000
 -0.001 -0.000  0.000  0.000  0.995
   spin  2
    eigenvalues: 
  0.301  0.318  0.344  0.449  0.484
    eigenvectors:
  0.000  0.000  0.714  0.286  0.000
  0.677  0.322  0.000  0.000  0.000
  0.322  0.677  0.000  0.000  0.000
  0.000  0.000  0.032  0.075  0.893
  0.000  0.000  0.254  0.640  0.107
    occupations:
  0.374 -0.000 -0.000 -0.016  0.045
 -0.000  0.307  0.008  0.000 -0.000
 -0.000  0.008  0.313  0.000  0.001
 -0.016  0.000  0.000  0.477  0.020
  0.045 -0.000  0.001  0.020  0.426
atomic mag. moment =     3.079256
atom    4   Tr[ns(na)] (up, down, total) =   4.97617  1.90417  6.88034
   spin  1
    eigenvalues: 
  0.993  0.995  0.995  0.996  0.997
    eigenvectors:
  0.904  0.096  0.000  0.000  0.000
  0.000  0.000  0.366  0.010  0.624
  0.000  0.000  0.614  0.010  0.375
  0.013  0.126  0.017  0.844  0.000
  0.083  0.778  0.003  0.136  0.000
    occupations:
  0.993 -0.000 -0.000  0.000 -0.001
 -0.000  0.996 -0.001  0.000 -0.000
 -0.000 -0.001  0.996 -0.000  0.000
  0.000  0.000 -0.000  0.995  0.000
 -0.001 -0.000  0.000  0.000  0.995
   spin  2
    eigenvalues: 
  0.303  0.320  0.345  0.450  0.486
    eigenvectors:
  0.000  0.000  0.712  0.288  0.000
  0.663  0.337  0.000  0.000  0.000
  0.337  0.663  0.000  0.000  0.000
  0.000  0.000  0.032  0.079  0.889
  0.000  0.000  0.256  0.633  0.111
    occupations:
  0.375 -0.000 -0.000 -0.016  0.045
 -0.000  0.309  0.008 -0.000  0.000
 -0.000  0.008  0.314 -0.000 -0.000
 -0.016 -0.000 -0.000  0.479  0.021
  0.045  0.000 -0.000  0.021  0.427
atomic mag. moment =     3.072006
atom    5   Tr[ns(na)] (up, down, total) =   4.95371  2.03105  6.98476
   spin  1
    eigenvalues: 
  0.988  0.991  0.991  0.991  0.992
    eigenvectors:
  0.967  0.007  0.001  0.025  0.000
  0.001  0.121  0.257  0.001  0.619
  0.003  0.262  0.353  0.005  0.378
  0.010  0.558  0.322  0.109  0.002
  0.019  0.053  0.067  0.860  0.001
    occupations:
  0.989 -0.000 -0.000  0.000 -0.000
 -0.000  0.992 -0.001  0.000 -0.000
 -0.000 -0.001  0.991  0.000  0.000
  0.000  0.000  0.000  0.991 -0.000
 -0.000 -0.000  0.000 -0.000  0.991
   spin  2
    eigenvalues: 
  0.356  0.357  0.428  0.430  0.460
    eigenvectors:
  0.046  0.280  0.043  0.630  0.000
  0.574  0.094  0.000  0.000  0.332
  0.285  0.047  0.000  0.000  0.668
  0.011  0.065  0.744  0.180  0.000
  0.084  0.513  0.213  0.190  0.000
    occupations:
  0.406  0.000 -0.000 -0.012  0.032
  0.000  0.391  0.049  0.000 -0.000
 -0.000  0.049  0.426 -0.000 -0.000
 -0.012  0.000 -0.000  0.423  0.015
  0.032 -0.000 -0.000  0.015  0.386
atomic mag. moment =     2.922661
atom    6   Tr[ns(na)] (up, down, total) =   4.95460  2.03646  6.99106
   spin  1
    eigenvalues: 
  0.989  0.991  0.991  0.991  0.992
    eigenvectors:
  0.984  0.001  0.001  0.014  0.000
  0.001  0.017  0.167  0.027  0.788
  0.003  0.019  0.650  0.119  0.209
  0.008  0.694  0.004  0.291  0.003
  0.004  0.269  0.178  0.549  0.000
    occupations:
  0.989  0.000  0.000  0.000 -0.000
  0.000  0.992 -0.000  0.000  0.000
  0.000 -0.000  0.991  0.000 -0.000
  0.000  0.000  0.000  0.991 -0.000
 -0.000  0.000 -0.000 -0.000  0.991
   spin  2
    eigenvalues: 
  0.356  0.358  0.430  0.432  0.461
    eigenvectors:
  0.002  0.324  0.012  0.662  0.000
  0.663  0.003  0.000  0.000  0.334
  0.332  0.002  0.000  0.000  0.666
  0.000  0.074  0.922  0.004  0.000
  0.003  0.597  0.065  0.335  0.000
    occupations:
  0.408  0.000 -0.000 -0.011  0.033
  0.000  0.391  0.049 -0.000 -0.000
 -0.000  0.049  0.426  0.000  0.000
 -0.011 -0.000  0.000  0.425  0.015
  0.033 -0.000  0.000  0.015  0.387
atomic mag. moment =     2.918145
atom    7   Tr[ns(na)] (up, down, total) =   4.95398  2.02773  6.98171
   spin  1
    eigenvalues: 
  0.989  0.991  0.991  0.991  0.992
    eigenvectors:
  0.987  0.010  0.001  0.001  0.000
  0.000  0.028  0.050  0.376  0.546
  0.000  0.036  0.118  0.397  0.448
  0.012  0.873  0.012  0.103  0.001
  0.000  0.053  0.819  0.123  0.005
    occupations:
  0.989 -0.000  0.000  0.000 -0.000
 -0.000  0.992 -0.001 -0.000 -0.000
  0.000 -0.001  0.992 -0.000  0.000
  0.000 -0.000 -0.000  0.991 -0.000
 -0.000 -0.000  0.000 -0.000  0.991
   spin  2
    eigenvalues: 
  0.355  0.356  0.428  0.429  0.459
    eigenvectors:
  0.000  0.322  0.022  0.655  0.000
  0.666  0.000  0.000  0.000  0.334
  0.334  0.000  0.000  0.000  0.666
  0.000  0.075  0.797  0.128  0.000
  0.000  0.602  0.181  0.217  0.000
    occupations:
  0.406  0.000  0.000 -0.012  0.032
  0.000  0.390  0.049 -0.000  0.000
  0.000  0.049  0.424 -0.000  0.000
 -0.012 -0.000 -0.000  0.423  0.015
  0.032  0.000  0.000  0.015  0.385
atomic mag. moment =     2.926258
atom    8   Tr[ns(na)] (up, down, total) =   4.95391  2.02971  6.98363
   spin  1
    eigenvalues: 
  0.989  0.991  0.991  0.991  0.992
    eigenvectors:
  0.989  0.006  0.004  0.000  0.001
  0.002  0.002  0.033  0.225  0.738
  0.000  0.029  0.034  0.683  0.254
  0.009  0.689  0.226  0.076  0.000
  0.000  0.274  0.703  0.016  0.006
    occupations:
  0.989  0.000 -0.000  0.000 -0.000
  0.000  0.992 -0.000 -0.000  0.000
 -0.000 -0.000  0.991 -0.000 -0.000
  0.000 -0.000 -0.000  0.991 -0.000
 -0.000  0.000 -0.000 -0.000  0.991
   spin  2
    eigenvalues: 
  0.355  0.356  0.429  0.430  0.459
    eigenvectors:
  0.000  0.320  0.012  0.668  0.000
  0.669  0.000  0.000  0.000  0.331
  0.331  0.000  0.000  0.000  0.669
  0.000  0.076  0.920  0.004  0.000
  0.000  0.604  0.067  0.329  0.000
    occupations:
  0.407  0.000  0.000 -0.011  0.032
  0.000  0.390  0.049  0.000  0.000
  0.000  0.049  0.425 -0.000  0.000
 -0.011  0.000 -0.000  0.423  0.015
  0.032  0.000  0.000  0.015  0.386
atomic mag. moment =     2.924201
atom    9   Tr[ns(na)] (up, down, total) =   4.95470  2.04046  6.99516
   spin  1
    eigenvalues: 
  0.989  0.991  0.991  0.992  0.992
    eigenvectors:
  0.135  0.692  0.053  0.120  0.000
  0.297  0.108  0.267  0.304  0.024
  0.547  0.060  0.164  0.215  0.014
  0.002  0.011  0.114  0.001  0.872
  0.019  0.130  0.401  0.360  0.090
    occupations:
  0.991 -0.000 -0.001  0.000 -0.000
 -0.000  0.991 -0.001  0.000 -0.000
 -0.001 -0.001  0.990 -0.000 -0.000
  0.000  0.000 -0.000  0.992  0.000
 -0.000 -0.000 -0.000  0.000  0.991
   spin  2
    eigenvalues: 
  0.365  0.371  0.432  0.434  0.438
    eigenvectors:
  0.000  0.238  0.024  0.171  0.566
  0.676  0.000  0.000  0.249  0.075
  0.324  0.000  0.000  0.522  0.155
  0.000  0.082  0.811  0.020  0.086
  0.000  0.680  0.164  0.038  0.118
    occupations:
  0.421  0.001  0.001 -0.010  0.026
  0.001  0.388  0.033 -0.000  0.000
  0.001  0.033  0.412 -0.001  0.001
 -0.010 -0.000 -0.001  0.427  0.013
  0.026  0.000  0.001  0.013  0.391
atomic mag. moment =     2.914237
atom   10   Tr[ns(na)] (up, down, total) =   4.95692  2.03034  6.98727
   spin  1
    eigenvalues: 
  0.989  0.991  0.992  0.992  0.992
    eigenvectors:
  0.012  0.253  0.722  0.000  0.012
  0.361  0.002  0.009  0.602  0.027
  0.621  0.014  0.001  0.364  0.000
  0.005  0.219  0.152  0.002  0.622
  0.001  0.512  0.117  0.033  0.338
    occupations:
  0.992 -0.000 -0.000  0.000 -0.000
 -0.000  0.991 -0.001  0.000  0.000
 -0.000 -0.001  0.990  0.000  0.000
  0.000  0.000  0.000  0.992  0.000
 -0.000  0.000  0.000  0.000  0.992
   spin  2
    eigenvalues: 
  0.368  0.372  0.425  0.430  0.435
    eigenvectors:
  0.013  0.223  0.002  0.012  0.751
  0.650  0.027  0.309  0.010  0.003
  0.309  0.013  0.655  0.020  0.002
  0.003  0.084  0.032  0.810  0.071
  0.025  0.654  0.001  0.148  0.172
    occupations:
  0.420  0.001 -0.000 -0.009  0.025
  0.001  0.387  0.026 -0.001 -0.000
 -0.000  0.026  0.407 -0.001  0.000
 -0.009 -0.001 -0.001  0.425  0.014
  0.025 -0.000  0.000  0.014  0.392
atomic mag. moment =     2.926577
atom   11   Tr[ns(na)] (up, down, total) =   4.95669  2.03831  6.99500
   spin  1
    eigenvalues: 
  0.989  0.991  0.992  0.992  0.992
    eigenvectors:
  0.010  0.124  0.607  0.206  0.053
  0.251  0.003  0.273  0.274  0.200
  0.733  0.017  0.057  0.144  0.049
  0.004  0.010  0.013  0.277  0.695
  0.003  0.846  0.050  0.099  0.003
    occupations:
  0.992 -0.000  0.000  0.000 -0.000
 -0.000  0.991 -0.001 -0.000  0.000
  0.000 -0.001  0.990 -0.000 -0.000
  0.000 -0.000 -0.000  0.992  0.000
 -0.000  0.000 -0.000  0.000  0.991
   spin  2
    eigenvalues: 
  0.368  0.372  0.428  0.432  0.438
    eigenvectors:
  0.014  0.224  0.004  0.000  0.758
  0.629  0.038  0.313  0.018  0.002
  0.317  0.016  0.632  0.033  0.002
  0.004  0.079  0.049  0.848  0.021
  0.036  0.643  0.003  0.101  0.217
    occupations:
  0.422 -0.001  0.000 -0.009  0.026
 -0.001  0.388  0.028  0.001  0.000
  0.000  0.028  0.409  0.001 -0.001
 -0.009  0.001  0.001  0.427  0.014
  0.026  0.000 -0.001  0.014  0.393
atomic mag. moment =     2.918374
atom   12   Tr[ns(na)] (up, down, total) =   4.95387  2.04705  7.00092
   spin  1
    eigenvalues: 
  0.989  0.991  0.991  0.992  0.992
    eigenvectors:
  0.099  0.079  0.006  0.762  0.054
  0.289  0.078  0.511  0.122  0.000
  0.596  0.192  0.203  0.007  0.002
  0.006  0.081  0.009  0.020  0.885
  0.011  0.569  0.271  0.090  0.060
    occupations:
  0.991  0.001  0.001  0.000 -0.000
  0.001  0.990 -0.001 -0.000  0.000
  0.001 -0.001  0.990 -0.000  0.000
  0.000 -0.000 -0.000  0.992  0.000
 -0.000  0.000  0.000  0.000  0.991
   spin  2
    eigenvalues: 
  0.365  0.371  0.432  0.438  0.442
    eigenvectors:
  0.002  0.229  0.009  0.005  0.756
  0.668  0.003  0.002  0.323  0.004
  0.328  0.001  0.005  0.663  0.004
  0.000  0.086  0.903  0.006  0.004
  0.002  0.681  0.081  0.003  0.233
    occupations:
  0.426 -0.001  0.001 -0.009  0.029
 -0.001  0.389  0.034  0.000 -0.001
  0.001  0.034  0.414  0.001 -0.000
 -0.009  0.000  0.001  0.427  0.015
  0.029 -0.001 -0.000  0.015  0.392
atomic mag. moment =     2.906827
atom   13   Tr[ns(na)] (up, down, total) =   4.95770  2.03087  6.98857
   spin  1
    eigenvalues: 
  0.990  0.991  0.991  0.992  0.993
    eigenvectors:
  0.009  0.009  0.405  0.562  0.016
  0.006  0.095  0.054  0.098  0.747
  0.080  0.397  0.221  0.076  0.226
  0.899  0.066  0.032  0.000  0.003
  0.006  0.434  0.289  0.263  0.008
    occupations:
  0.992  0.000  0.000 -0.000 -0.000
  0.000  0.993 -0.001 -0.000 -0.000
  0.000 -0.001  0.991  0.000 -0.000
 -0.000 -0.000  0.000  0.990 -0.000
 -0.000 -0.000 -0.000 -0.000  0.991
   spin  2
    eigenvalues: 
  0.347  0.351  0.430  0.435  0.468
    eigenvectors:
  0.399  0.011  0.005  0.493  0.092
  0.023  0.645  0.001  0.048  0.283
  0.007  0.325  0.000  0.099  0.568
  0.067  0.000  0.842  0.075  0.015
  0.504  0.018  0.152  0.285  0.041
    occupations:
  0.402  0.006  0.008 -0.016  0.043
  0.006  0.388  0.052 -0.000  0.003
  0.008  0.052  0.426 -0.004  0.004
 -0.016 -0.000 -0.004  0.425  0.014
  0.043  0.003  0.004  0.014  0.390
atomic mag. moment =     2.926835
atom   14   Tr[ns(na)] (up, down, total) =   4.94415  2.04542  6.98957
   spin  1
    eigenvalues: 
  0.985  0.987  0.989  0.990  0.992
    eigenvectors:
  0.020  0.894  0.081  0.002  0.003
  0.386  0.017  0.001  0.005  0.591
  0.585  0.009  0.003  0.001  0.402
  0.000  0.030  0.465  0.501  0.004
  0.009  0.049  0.450  0.492  0.000
    occupations:
  0.988 -0.000  0.000 -0.000 -0.000
 -0.000  0.990 -0.003  0.000  0.000
  0.000 -0.003  0.988 -0.000  0.000
 -0.000  0.000 -0.000  0.989 -0.000
 -0.000  0.000  0.000 -0.000  0.989
   spin  2
    eigenvalues: 
  0.348  0.352  0.435  0.439  0.471
    eigenvectors:
  0.052  0.173  0.219  0.330  0.225
  0.512  0.146  0.069  0.038  0.235
  0.256  0.086  0.148  0.063  0.448
  0.019  0.079  0.333  0.568  0.001
  0.161  0.516  0.230  0.001  0.091
    occupations:
  0.426  0.007  0.011 -0.014  0.038
  0.007  0.387  0.053  0.001  0.008
  0.011  0.053  0.422  0.001  0.007
 -0.014  0.001  0.001  0.429  0.022
  0.038  0.008  0.007  0.022  0.382
atomic mag. moment =     2.898726
atom   15   Tr[ns(na)] (up, down, total) =   4.95804  2.01310  6.97114
   spin  1
    eigenvalues: 
  0.991  0.991  0.991  0.992  0.993
    eigenvectors:
  0.001  0.757  0.010  0.232  0.000
  0.000  0.009  0.048  0.013  0.930
  0.409  0.004  0.486  0.089  0.012
  0.552  0.042  0.227  0.177  0.002
  0.038  0.189  0.229  0.490  0.055
    occupations:
  0.991  0.000 -0.000 -0.000 -0.000
  0.000  0.993 -0.000 -0.000  0.000
 -0.000 -0.000  0.991  0.000  0.000
 -0.000 -0.000  0.000  0.991  0.000
 -0.000  0.000  0.000  0.000  0.992
   spin  2
    eigenvalues: 
  0.368  0.373  0.416  0.423  0.433
    eigenvectors:
  0.398  0.053  0.327  0.003  0.219
  0.049  0.482  0.194  0.016  0.258
  0.027  0.439  0.153  0.020  0.362
  0.039  0.001  0.101  0.859  0.000
  0.487  0.024  0.225  0.102  0.161
    occupations:
  0.398  0.004  0.006 -0.006  0.026
  0.004  0.398  0.027  0.000  0.000
  0.006  0.027  0.402 -0.001  0.005
 -0.006  0.000 -0.001  0.420  0.009
  0.026  0.000  0.005  0.009  0.395
atomic mag. moment =     2.944938
atom   16   Tr[ns(na)] (up, down, total) =   4.95311  2.01598  6.96909
   spin  1
    eigenvalues: 
  0.989  0.990  0.990  0.991  0.992
    eigenvectors:
  0.786  0.007  0.171  0.031  0.005
  0.015  0.532  0.113  0.126  0.214
  0.001  0.297  0.013  0.032  0.658
  0.010  0.002  0.329  0.608  0.051
  0.187  0.163  0.373  0.204  0.073
    occupations:
  0.989 -0.000 -0.000 -0.000 -0.001
 -0.000  0.991 -0.001  0.000 -0.000
 -0.000 -0.001  0.992 -0.000  0.000
 -0.000  0.000 -0.000  0.991 -0.000
 -0.001 -0.000  0.000 -0.000  0.990
   spin  2
    eigenvalues: 
  0.364  0.366  0.422  0.429  0.435
    eigenvectors:
  0.072  0.254  0.405  0.004  0.266
  0.511  0.206  0.136  0.004  0.143
  0.231  0.054  0.298  0.011  0.406
  0.031  0.083  0.021  0.777  0.087
  0.154  0.404  0.140  0.205  0.097
    occupations:
  0.407 -0.001 -0.003 -0.012  0.026
 -0.001  0.383  0.029  0.001 -0.002
 -0.003  0.029  0.411  0.003 -0.006
 -0.012  0.001  0.003  0.422  0.016
  0.026 -0.002 -0.006  0.016  0.393
atomic mag. moment =     2.937136
atom   17   Tr[ns(na)] (up, down, total) =   4.93911  2.02726  6.96636
   spin  1
    eigenvalues: 
  0.964  0.990  0.993  0.995  0.997
    eigenvectors:
  0.268  0.491  0.054  0.182  0.005
  0.321  0.050  0.030  0.118  0.482
  0.301  0.003  0.167  0.058  0.471
  0.000  0.068  0.374  0.543  0.016
  0.110  0.388  0.376  0.100  0.027
    occupations:
  0.984  0.008  0.009  0.001 -0.004
  0.008  0.986 -0.011  0.000  0.007
  0.009 -0.011  0.986  0.001  0.005
  0.001  0.000  0.001  0.994 -0.000
 -0.004  0.007  0.005 -0.000  0.989
   spin  2
    eigenvalues: 
  0.290  0.343  0.404  0.445  0.545
    eigenvectors:
  0.012  0.459  0.004  0.005  0.520
  0.465  0.305  0.023  0.014  0.193
  0.472  0.128  0.172  0.000  0.228
  0.000  0.038  0.064  0.894  0.005
  0.050  0.070  0.737  0.088  0.055
    occupations:
  0.448 -0.059 -0.072 -0.017  0.037
 -0.059  0.360  0.071 -0.008 -0.024
 -0.072  0.071  0.375  0.002  0.008
 -0.017 -0.008  0.002  0.439  0.012
  0.037 -0.024  0.008  0.012  0.405
atomic mag. moment =     2.911854
atom   18   Tr[ns(na)] (up, down, total) =   4.96755  1.82026  6.78781
   spin  1
    eigenvalues: 
  0.985  0.995  0.996  0.996  0.996
    eigenvectors:
  0.480  0.138  0.029  0.030  0.322
  0.461  0.036  0.105  0.166  0.232
  0.001  0.213  0.195  0.430  0.161
  0.055  0.473  0.089  0.370  0.012
  0.003  0.139  0.581  0.005  0.272
    occupations:
[...]
     0.0506   0.0487   0.0446   0.0213   0.0158   0.0128   0.0095   0.0090
     0.0081   0.0073   0.0064   0.0018   0.0016   0.0009   0.0006   0.0005
     0.0004   0.0001   0.0001   0.0001   0.0000   0.0000   0.0000   0.0000
     0.0000   0.0000   0.0000   0.0000   0.0000   0.0000   0.0000   0.0000
     0.0000   0.0000   0.0000   0.0000   0.0000   0.0000   0.0000   0.0000
     0.0000   0.0000   0.0000   0.0000   0.0000   0.0000   0.0000   0.0000
     0.0000   0.0000

     the Fermi energy is     6.9199 ev

!    total energy              =   -6686.67181230 Ry
     Harris-Foulkes estimate   =   -6686.67181230 Ry
     estimated scf accuracy    <          5.3E-09 Ry

     total all-electron energy =    -51288.060408 Ry

     The total energy is the sum of the following terms:

     one-electron contribution =  -29182.53130374 Ry
     hartree contribution      =   14679.22942082 Ry
     xc contribution           =    -715.28143282 Ry
     ewald contribution        =   10080.50945474 Ry
     Hubbard energy            =       0.00000000 Ry
     one-center paw contrib.   =   -1548.72587131 Ry
     smearing contrib. (-TS)   =       0.12792001 Ry

     total magnetization       =    45.98 Bohr mag/cell
     absolute magnetization    =    48.27 Bohr mag/cell

     convergence has been achieved in  29 iterations

     Forces acting on atoms (Ry/au):


     negative rho (up, down):  0.615E-04 0.510E-03
     atom    1 type  1   force =     0.00003821    0.00019011    0.00245462
     atom    2 type  1   force =     0.00004133    0.00010116    0.00215621
     atom    3 type  1   force =     0.00005302    0.00003714    0.00229387
     atom    4 type  1   force =     0.00009688    0.00003505    0.00215287
     atom    5 type  1   force =     0.00017928    0.00037404   -0.00019212
     atom    6 type  1   force =     0.00019344    0.00031696    0.00117026
     atom    7 type  1   force =    -0.00025832   -0.00026231    0.00099392
     atom    8 type  1   force =    -0.00033252   -0.00047466    0.00250757
     atom    9 type  1   force =     0.00070407    0.00088826   -0.00451697
     atom   10 type  1   force =     0.00009805    0.00074186   -0.00093069
     atom   11 type  1   force =     0.00111312    0.00046511   -0.00077025
     atom   12 type  1   force =    -0.00175669   -0.00202225   -0.00752613
     atom   13 type  1   force =     0.00005133   -0.00001727    0.00001662
     atom   14 type  1   force =    -0.00005119   -0.00000738    0.00003233
     atom   15 type  1   force =    -0.00000684   -0.00003659   -0.00000914
     atom   16 type  1   force =    -0.00004557   -0.00002298    0.00002785
     atom   17 type  1   force =    -0.00002271    0.00003910    0.00009490
     atom   18 type  1   force =     0.00004456   -0.00002317    0.00008194
     atom   19 type  1   force =    -0.00000282   -0.00008832   -0.00008881
     atom   20 type  1   force =    -0.00000379   -0.00004988   -0.00002236
     atom   21 type  3   force =    -0.00001489   -0.00008154   -0.00000474
     atom   22 type  2   force =    -0.00004838   -0.00007282    0.00005175
     atom   23 type  3   force =    -0.00006958   -0.00002963    0.00002651
     The non-local contrib.  to forces
     atom    1 type  1   force =     0.00034613   -0.00036441   -0.20047190
     atom    2 type  1   force =    -0.00006265    0.00036498   -0.20118522
     atom    3 type  1   force =    -0.00057719   -0.00011564   -0.20167789
     atom    4 type  1   force =     0.00015454   -0.00009945   -0.20014387
     atom    5 type  1   force =    -0.00056449   -0.00036172   -0.02899544
     atom    6 type  1   force =    -0.00065289   -0.00063069   -0.02801049
     atom    7 type  1   force =     0.00026992   -0.00004449   -0.03051470
     atom    8 type  1   force =    -0.00005931   -0.00024582   -0.03128219
     atom    9 type  1   force =     0.00064064   -0.00261411    0.00661127
     atom   10 type  1   force =     0.00208010   -0.00259271   -0.00353992
     atom   11 type  1   force =    -0.00427684   -0.00064979   -0.00339030
     atom   12 type  1   force =    -0.00095140    0.00144030    0.01288682
     atom   13 type  1   force =     0.00164183    0.00128032    0.04380913
     atom   14 type  1   force =     0.00871929    0.01692154    0.04212861
     atom   15 type  1   force =     0.00417257   -0.00722295    0.01005649
     atom   16 type  1   force =    -0.00017743    0.00621386    0.01053608
     atom   17 type  1   force =     0.07778028    0.07951066    0.06529360
     atom   18 type  1   force =     0.08774484    0.00143503    0.21121619
     atom   19 type  1   force =    -0.12097347    0.01986460    0.19333142
     atom   20 type  1   force =    -0.14870169   -0.16193378    0.27503767
     atom   21 type  3   force =    -1.46271999    0.82350649   -1.59205902
     atom   22 type  2   force =     0.26937482    0.38996591    0.29649771
     atom   23 type  3   force =     0.47671364   -1.66244831   -1.19101808
     The ionic contribution  to forces
     atom    1 type  1   force =     0.00073332    0.00053121 -325.11226356
     atom    2 type  1   force =     0.00094186    0.00006495 -325.11102455
     atom    3 type  1   force =    -0.00067562   -0.00017812 -325.11162488
     atom    4 type  1   force =    -0.00100621   -0.00041611 -325.11349606
     atom    5 type  1   force =    -0.00758692   -0.00645031 -172.55104643
     atom    6 type  1   force =     0.00670267    0.00731841 -172.58978940
     atom    7 type  1   force =    -0.00688079    0.00086874 -172.52172136
     atom    8 type  1   force =     0.00727514   -0.00231333 -172.53941288
     atom    9 type  1   force =     0.19240269    0.18349961  -17.84981664
     atom   10 type  1   force =     0.22395539    0.05803138  -17.43405922
     atom   11 type  1   force =    -0.12701554    0.03427177  -17.53358018
     atom   12 type  1   force =    -0.18915855   -0.14036113  -18.25360631
     atom   13 type  1   force =     0.31807030   -0.07259093  137.40298251
     atom   14 type  1   force =     0.11553023    0.36056080  134.89913984
     atom   15 type  1   force =     0.07303684    0.52672921  140.47581310
     atom   16 type  1   force =    -0.26498970   -0.46634918  139.09985347
     atom   17 type  1   force =    -1.79399808   -3.77987747  286.07497963
     atom   18 type  1   force =    -4.45066111    2.27398931  294.28414769
     atom   19 type  1   force =     3.23903779   -1.85412854  294.26870521
     atom   20 type  1   force =     3.79380157    2.43916892  287.42882458
     atom   21 type  3   force =     5.24689345   -3.54136478  130.01273617
     atom   22 type  2   force =    -3.62571683   -2.13697849   84.82245962
     atom   23 type  3   force =    -2.75069190    6.11597408  132.95179962
     The local contribution  to forces
     atom    1 type  1   force =    -0.00099237    0.00005718  325.32388714
     atom    2 type  1   force =    -0.00089158   -0.00030853  325.32314662
     atom    3 type  1   force =     0.00131782    0.00029538  325.32435074
     atom    4 type  1   force =     0.00095226    0.00056282  325.32444357
     atom    5 type  1   force =     0.00828633    0.00709096  172.58111730
     atom    6 type  1   force =    -0.00590439   -0.00640133  172.62050081
     atom    7 type  1   force =     0.00635845   -0.00110424  172.55473602
     atom    8 type  1   force =    -0.00756401    0.00207476  172.57481518
     atom    9 type  1   force =    -0.19265135   -0.18033737   17.83907523
     atom   10 type  1   force =    -0.22606681   -0.05472487   17.43664044
     atom   11 type  1   force =     0.13249635   -0.03313645   17.53612686
     atom   12 type  1   force =     0.18828949    0.13670507   18.23346841
     atom   13 type  1   force =    -0.31980138    0.07103210 -137.45013911
     atom   14 type  1   force =    -0.12480842   -0.37770225 -134.94106839
     atom   15 type  1   force =    -0.07747954   -0.51969699 -140.48840731
     atom   16 type  1   force =     0.26523870    0.46024020 -139.11154533
     atom   17 type  1   force =     1.71792272    3.70495126 -286.13593673
     atom   18 type  1   force =     4.35471707   -2.27460502 -294.51069423
     atom   19 type  1   force =    -3.11196816    1.83407511 -294.47694203
     atom   20 type  1   force =    -3.63868046   -2.27338890 -287.71669445
     atom   21 type  3   force =    -3.79707129    2.72496498 -128.43544775
     atom   22 type  2   force =     3.35881613    1.75551899  -85.11429526
     atom   23 type  3   force =     2.27811164   -4.46894305 -131.77277281
     The core correction contribution to forces
     atom    1 type  1   force =    -0.00004875   -0.00003137   -0.00877319
     atom    2 type  1   force =     0.00005435   -0.00002330   -0.00883418
     atom    3 type  1   force =    -0.00001006    0.00003857   -0.00880805
     atom    4 type  1   force =    -0.00000279   -0.00001311   -0.00872677
     atom    5 type  1   force =     0.00004480    0.00009755   -0.00144402
     atom    6 type  1   force =     0.00004993    0.00002828   -0.00170468
     atom    7 type  1   force =    -0.00000689    0.00001484   -0.00166802
     atom    8 type  1   force =     0.00001754    0.00001345   -0.00177371
     atom    9 type  1   force =     0.00032210    0.00035388   -0.00044313
     atom   10 type  1   force =     0.00014076    0.00002375   -0.00006560
     atom   11 type  1   force =    -0.00009733   -0.00001465   -0.00002059
     atom   12 type  1   force =     0.00005222    0.00018039   -0.00033164
     atom   13 type  1   force =     0.00013564    0.00026531    0.00335751
     atom   14 type  1   force =     0.00051511    0.00021003   -0.00015628
     atom   15 type  1   force =     0.00025522    0.00014604    0.00253009
     atom   16 type  1   force =    -0.00010948   -0.00011740    0.00118458
     atom   17 type  1   force =    -0.00173753   -0.00454038   -0.00422986
     atom   18 type  1   force =     0.00823043   -0.00084841    0.01541744
     atom   19 type  1   force =    -0.00607373    0.00009962    0.01482585
     atom   20 type  1   force =    -0.00640301   -0.00387613    0.01280063
     atom   21 type  3   force =     0.01288728   -0.00719533    0.01480025
     atom   22 type  2   force =    -0.00253118   -0.00858506   -0.00461141
     atom   23 type  3   force =    -0.00421257    0.01539273    0.01204097
     The Hubbard contrib.    to forces
     atom    1 type  1   force =     0.00000000    0.00000000   -0.00000000
     atom    2 type  1   force =    -0.00000000    0.00000000   -0.00000000
     atom    3 type  1   force =     0.00000000   -0.00000000   -0.00000000
     atom    4 type  1   force =    -0.00000000    0.00000000   -0.00000000
     atom    5 type  1   force =    -0.00000000   -0.00000000    0.00000000
     atom    6 type  1   force =     0.00000000    0.00000000    0.00000000
     atom    7 type  1   force =    -0.00000000    0.00000000    0.00000000
     atom    8 type  1   force =    -0.00000000   -0.00000000    0.00000000
     atom    9 type  1   force =    -0.00000000   -0.00000000    0.00000000
     atom   10 type  1   force =    -0.00000000   -0.00000000   -0.00000000
     atom   11 type  1   force =     0.00000000    0.00000000   -0.00000000
     atom   12 type  1   force =    -0.00000000   -0.00000000    0.00000000
     atom   13 type  1   force =    -0.00000000   -0.00000000   -0.00000000
     atom   14 type  1   force =     0.00000000    0.00000000    0.00000000
     atom   15 type  1   force =     0.00000000   -0.00000000   -0.00000000
     atom   16 type  1   force =     0.00000000   -0.00000000    0.00000000
     atom   17 type  1   force =     0.00000000    0.00000000    0.00000000
     atom   18 type  1   force =    -0.00000000    0.00000000    0.00000000
     atom   19 type  1   force =     0.00000000   -0.00000000    0.00000000
     atom   20 type  1   force =     0.00000000   -0.00000000   -0.00000000
     atom   21 type  3   force =    -0.00000000    0.00000000    0.00000000
     atom   22 type  2   force =     0.00000000    0.00000000    0.00000000
     atom   23 type  3   force =     0.00000000   -0.00000000    0.00000000
     The SCF correction term to forces
     atom    1 type  1   force =     0.00000000    0.00000000    0.00000000
     atom    2 type  1   force =     0.00000000    0.00000000    0.00000000
     atom    3 type  1   force =     0.00000000    0.00000000    0.00000000
     atom    4 type  1   force =     0.00000000    0.00000000    0.00000000
     atom    5 type  1   force =     0.00000000    0.00000000    0.00000000
     atom    6 type  1   force =     0.00000000    0.00000000    0.00000000
     atom    7 type  1   force =     0.00000000    0.00000000    0.00000000
     atom    8 type  1   force =     0.00000000    0.00000000    0.00000000
     atom    9 type  1   force =     0.00000000    0.00000000    0.00000000
     atom   10 type  1   force =     0.00000000    0.00000000    0.00000000
     atom   11 type  1   force =     0.00000000    0.00000000    0.00000000
     atom   12 type  1   force =     0.00000000    0.00000000    0.00000000
     atom   13 type  1   force =     0.00000576   -0.00000363   -0.00000844
     atom   14 type  1   force =    -0.00000658    0.00000293   -0.00002647
     atom   15 type  1   force =     0.00000889    0.00000853   -0.00001654
     atom   16 type  1   force =    -0.00000683   -0.00001003   -0.00001597
     atom   17 type  1   force =     0.00001073   -0.00000453   -0.00002676
     atom   18 type  1   force =     0.00001415    0.00000634   -0.00002019
     atom   19 type  1   force =    -0.00002443    0.00000131   -0.00002430
     atom   20 type  1   force =    -0.00001937   -0.00001956   -0.00000581
     atom   21 type  3   force =    -0.00000351    0.00000753   -0.00004943
     atom   22 type  2   force =     0.00000950    0.00000627   -0.00001395
     atom   23 type  3   force =     0.00001043   -0.00000465   -0.00003822

     Total force =     0.000273     Total SCF correction =     0.000098
     SCF correction compared to forces is large: reduce conv_thr to get better values


     entering subroutine stress ...


     negative rho (up, down):  0.615E-04 0.510E-03
          total   stress  (Ry/bohr**3)                   (kbar)     P=   -5.14
  -0.00003907  -0.00002463  -0.00000056         -5.75     -3.62     -0.08
  -0.00002463  -0.00003752  -0.00000167         -3.62     -5.52     -0.25
  -0.00000056  -0.00000167  -0.00002814         -0.08     -0.25     -4.14

     kinetic stress (kbar)  41100.23     52.90      1.85
                               52.90  41093.79     30.70
                                1.85     30.70  40984.15

     local   stress (kbar)**********   1849.01      8.10
                             1849.01**********    170.90
                                8.10    170.901292933.27

     nonloc. stress (kbar) -30830.41      8.59     -5.80
                                8.59 -30813.94     -7.98
                               -5.80     -7.98 -30708.35

     hartree stress (kbar) 645421.03   -669.93    -45.10
                             -669.93 645265.68    -73.22
                              -45.10    -73.22-602837.57

     exc-cor stress (kbar)  -1470.69     -2.39      1.13
                               -2.39  -1470.78      0.18
                                1.13      0.18  -1479.30

     corecor stress (kbar)  -8244.05      0.18     -0.31
                                0.18  -8244.05     -0.11
                               -0.31     -0.11  -8242.06

     ewald   stress (kbar) 581680.75  -1241.98     40.05
                            -1241.98 581332.78   -120.72
                               40.05   -120.72-690654.28

     hubbard stress (kbar)     -0.00      0.00     -0.00
                                0.00     -0.00     -0.00
                               -0.00     -0.00     -0.00

     london  stress (kbar)      0.00      0.00      0.00
                                0.00      0.00      0.00
                                0.00      0.00      0.00

     dft-nl  stress (kbar)      0.00      0.00      0.00
                                0.00      0.00      0.00
                                0.00      0.00      0.00



     Writing output data file Fe_110_2x2_SB_O_LB_CO_25ML.save
 
     init_run     :     39.26s CPU     42.62s WALL (       1 calls)
     electrons    :   1785.83s CPU   1943.66s WALL (       1 calls)
     forces       :     64.77s CPU     65.75s WALL (       1 calls)
     stress       :    317.66s CPU    326.12s WALL (       1 calls)

     Called by init_run:
     wfcinit      :     21.31s CPU     23.69s WALL (       1 calls)
     potinit      :      2.40s CPU      2.45s WALL (       1 calls)

     Called by electrons:
     c_bands      :    903.42s CPU    946.44s WALL (      29 calls)
     sum_band     :    468.31s CPU    488.69s WALL (      29 calls)
     v_of_rho     :     18.61s CPU     18.99s WALL (      30 calls)
     v_h          :      0.90s CPU      0.91s WALL (      30 calls)
     v_xc         :     18.90s CPU     19.28s WALL (      32 calls)
     newd         :    273.83s CPU    274.64s WALL (      30 calls)
     mix_rho      :     97.45s CPU     97.85s WALL (      29 calls)

     Called by c_bands:
     init_us_2    :      5.98s CPU      6.03s WALL (     360 calls)
     cegterg      :    833.76s CPU    851.64s WALL (     145 calls)

     Called by sum_band:
     sum_band:bec :      0.29s CPU      0.31s WALL (     145 calls)
     addusdens    :    312.38s CPU    313.00s WALL (      29 calls)

     Called by *egterg:
     h_psi        :    616.56s CPU    617.97s WALL (     514 calls)
     s_psi        :     49.28s CPU     49.35s WALL (     569 calls)
     g_psi        :      1.16s CPU      1.19s WALL (     364 calls)
     cdiaghg      :     58.60s CPU     58.94s WALL (     509 calls)
     cegterg:over :     48.37s CPU     48.40s WALL (     364 calls)
     cegterg:upda :     35.17s CPU     35.39s WALL (     364 calls)
     cegterg:last :     22.24s CPU     22.28s WALL (     145 calls)
     cdiaghg:chol :      2.86s CPU      2.85s WALL (     509 calls)
     cdiaghg:inve :      0.88s CPU      0.98s WALL (     509 calls)
     cdiaghg:para :     11.70s CPU     11.61s WALL (    1018 calls)

     Called by h_psi:
     h_psi:vloc   :    403.44s CPU    404.60s WALL (     514 calls)
     h_psi:vnl    :     88.05s CPU     88.13s WALL (     514 calls)
     add_vuspsi   :     42.51s CPU     42.48s WALL (     514 calls)
     vhpsi        :    122.93s CPU    123.10s WALL (     514 calls)

     General routines
     calbec       :    143.11s CPU    143.45s WALL (    2513 calls)
     fft          :     19.32s CPU     19.53s WALL (     964 calls)
     ffts         :     45.71s CPU     45.88s WALL (   11166 calls)
     fftw         :    413.30s CPU    414.52s WALL (   77785 calls)
     interpolate  :      3.20s CPU      3.29s WALL (     118 calls)
     davcio       :     10.60s CPU     64.74s WALL (    1055 calls)
 
     Parallel routines
     fft_scatter  :    204.75s CPU    205.89s WALL (   89915 calls)
     ALLTOALL     :      9.81s CPU      9.89s WALL (   77677 calls)
     Hubbard U routines
     new_ns       :     16.31s CPU     30.16s WALL (      29 calls)
     vhpsi        :    122.93s CPU    123.10s WALL (     514 calls)
     force_hub    :     17.61s CPU     18.36s WALL (       1 calls)
     stres_hub    :    173.49s CPU    181.69s WALL (       1 calls)
 
     PAW routines
     PAW_pot      :      7.49s CPU      7.54s WALL (      30 calls)
     PAW_ddot     :      6.37s CPU      6.37s WALL (    1021 calls)
 
     PWSCF        : 37m 0.71s CPU    40m32.32s WALL

 
   This run was terminated on:   5:29:46  12Dec2015            

=------------------------------------------------------------------------------=
   JOB DONE.
=------------------------------------------------------------------------------=
Application 19354454 resources: utime ~112758s, stime ~3553s, Rss ~550636, inblocks ~5191525010, outblocks ~831300399
