
     Program PWSCF v.5.0.2 (svn rev. 9656) starts on  4Aug2015 at 11:48:38 

     This program is part of the open-source Quantum ESPRESSO suite
     for quantum simulation of materials; please cite
         "P. Giannozzi et al., J. Phys.:Condens. Matter 21 395502 (2009);
          URL http://www.quantum-espresso.org", 
     in publications or presentations arising from this work. More details at
     http://www.quantum-espresso.org/quote.php

     Parallel version (MPI & OpenMP), running on      48 processor cores
     Number of MPI processes:                48
     Threads/MPI process:                     1
     K-points division:     npool     =       4
     R & G space division:  proc/nbgrp/npool/nimage =      12
     wavefunctions fft division:  fft/group =       2

     Current dimensions of program PWSCF are:
     Max number of different atomic species (ntypx) = 10
     Max number of k-points (npk) =  40000
     Max angular momentum in pseudopotentials (lmaxx) =  3
     Reading input from Fe_110_2x2_SB_CO_O_25ML_scf.in
Warning: card  &IONS ignored
Warning: card  / ignored
Warning: card  &CELL ignored
Warning: card    PRESS=0.0 ignored
Warning: card    PRESS_CONV_THR=0.1 ignored
Warning: card  / ignored

     IMPORTANT: XC functional enforced from input :
     Exchange-correlation      = PBE ( 1 4 3 4 0)
     EXX-fraction              =        0.00
     Any further DFT definition will be discarded
     Please, verify this is what you really want

               file Fe.pbe-spn-kjpaw_psl.0.2.1.UPF: wavefunction(s)  3D renormalized
               file C.pbe-n-kjpaw_psl.0.1.upf: wavefunction(s)  2P renormalized
               file O.pbe-n-kjpaw_psl.0.1.UPF: wavefunction(s)  2P renormalized

     Subspace diagonalization in iterative solution of the eigenvalue problem:
     scalapack distributed-memory algorithm (size of sub-group:  2*  2 procs)


   Task Groups are in USE
   groups and procs/group :     2    6
 
     Parallelization info
     --------------------
     sticks:   dense  smooth     PW     G-vecs:    dense   smooth      PW
     Min         429     203     57                99954    32713    4877
     Max         431     204     58                99959    32748    4892
     Sum        5161    2447    693              1199489   392779   58615
 


     bravais-lattice index     =            0
     lattice parameter (alat)  =       1.8897  a.u.
     unit-cell volume          =    3139.3349 (a.u.)^3
     number of atoms/cell      =           23
     number of atomic types    =            3
     number of electrons       =       336.00
     number of Kohn-Sham states=          202
     kinetic-energy cutoff     =      95.0000  Ry
     charge density cutoff     =     800.0000  Ry
     convergence threshold     =      1.0E-08
     mixing beta               =       0.5000
     number of iterations used =            8  local-TF  mixing
     Exchange-correlation      = PBE ( 1 4 3 4 0)
     EXX-fraction              =        0.00

     celldm(1)=   1.889727  celldm(2)=   0.000000  celldm(3)=   0.000000
     celldm(4)=   0.000000  celldm(5)=   0.000000  celldm(6)=   0.000000

     crystal axes: (cart. coord. in units of alat)
               a(1) = (   4.906044   0.000000   0.000000 )  
               a(2) = (  -1.635348   4.625463   0.000000 )  
               a(3) = (   0.000000   0.000000  20.500000 )  

     reciprocal axes: (cart. coord. in units 2 pi/alat)
               b(1) = (  0.203830  0.072065  0.000000 )  
               b(2) = (  0.000000  0.216195  0.000000 )  
               b(3) = (  0.000000  0.000000  0.048780 )  


     PseudoPot. # 1 for Fe read from file:
     /work/e05/e05/ablar/QE_PSEUDO/Fe.pbe-spn-kjpaw_psl.0.2.1.UPF
     MD5 check sum: a0a08122d52b112de96d1da1d7dd020f
     Pseudo is Projector augmented-wave + core cor, Zval = 16.0
     Generated using "atomic" code by A. Dal Corso  v.5.0.2 svn rev. 9415
     Shape of augmentation charge: PSQ
     Using radial grid of 1191 points,  6 beta functions with: 
                l(1) =   0
                l(2) =   0
                l(3) =   1
                l(4) =   1
                l(5) =   2
                l(6) =   2
     Q(r) pseudized with 0 coefficients 


     PseudoPot. # 2 for  C read from file:
     /work/e05/e05/ablar/QE_PSEUDO/C.pbe-n-kjpaw_psl.0.1.upf
     MD5 check sum: 430fe95172b1e11ef3f8ed03bac87931
     Pseudo is Projector augmented-wave + core cor, Zval =  4.0
     Generated using "atomic" code by A. Dal Corso  v.5.0.99 svn rev. 10869
     Shape of augmentation charge: BESSEL
     Using radial grid of 1073 points,  4 beta functions with: 
                l(1) =   0
                l(2) =   0
                l(3) =   1
                l(4) =   1
     Q(r) pseudized with 0 coefficients 


     PseudoPot. # 3 for  O read from file:
     /work/e05/e05/ablar/QE_PSEUDO/O.pbe-n-kjpaw_psl.0.1.UPF
     MD5 check sum: 1d826bf4880e2aee2c3af49d0719521d
     Pseudo is Projector augmented-wave + core cor, Zval =  6.0
     Generated using "atomic" code by A. Dal Corso  v.5.0.2 svn rev. 9415
     Shape of augmentation charge: BESSEL
     Using radial grid of 1095 points,  4 beta functions with: 
                l(1) =   0
                l(2) =   0
                l(3) =   1
                l(4) =   1
     Q(r) pseudized with 0 coefficients 


     atomic species   valence    mass     pseudopotential
        Fe            16.00    55.85000     Fe( 1.00)
        C              4.00    12.00000      C( 1.00)
        O              6.00    16.00000      O( 1.00)

     Starting magnetic structure 
     atomic species   magnetization
        Fe           0.600
        C            0.000
        O            0.000


     Simplified LDA+U calculation (l_max = 2) with parameters (eV):
     atomic species    L          U    alpha       J0     beta
        Fe             2     0.0000   0.0000   0.0000   0.0000



     No symmetry found


                                    s                        frac. trans.

      isym =  1     identity                                     

 cryst.   s( 1) = (     1          0          0      )
                  (     0          1          0      )
                  (     0          0          1      )

 cart.    s( 1) = (  1.0000000  0.0000000  0.0000000 )
                  (  0.0000000  1.0000000  0.0000000 )
                  (  0.0000000  0.0000000  1.0000000 )


     point group C_1 (1)    
     there are  1 classes
     the character table:

       E    
A      1.00

     the symmetry operations in each class:
     E        1

   Cartesian axes

     site n.     atom                  positions (alat units)
         1           Fe  tau(   1) = (   0.0000000   0.0000000  -4.0057584  )
         2           Fe  tau(   2) = (  -0.8176697   2.3127291  -4.0057584  )
         3           Fe  tau(   3) = (   2.4530190   0.0000000  -4.0057584  )
         4           Fe  tau(   4) = (  -3.2706887   2.3127291  -4.0057584  )
         5           Fe  tau(   5) = (   0.8176697   1.1563595  -2.0028892  )
         6           Fe  tau(   6) = (  -0.8176697  -1.1563595  -2.0028892  )
         7           Fe  tau(   7) = (   1.6353494  -1.1563595  -2.0028892  )
         8           Fe  tau(   8) = (  -1.6353494   1.1563595  -2.0028892  )
         9           Fe  tau(   9) = (   0.0000000   0.0000000   0.0000000  )
        10           Fe  tau(  10) = (  -0.8176697   2.3127291   0.0000000  )
        11           Fe  tau(  11) = (   2.4530190   0.0000000   0.0000000  )
        12           Fe  tau(  12) = (  -3.2706887   2.3127291   0.0000000  )
        13           Fe  tau(  13) = (   0.8231095   1.1518921   1.9973603  )
        14           Fe  tau(  14) = (  -0.8202043  -1.1551271   2.0036211  )
        15           Fe  tau(  15) = (   1.6413974  -1.1558772   1.9850534  )
        16           Fe  tau(  16) = (  -1.6341757   1.1495936   1.9851887  )
        17           Fe  tau(  17) = (   0.0355005  -0.0229613   4.0383586  )
        18           Fe  tau(  18) = (  -0.8210391   2.3144063   3.9157688  )
        19           Fe  tau(  19) = (   2.5316098  -0.0564489   4.0561048  )
        20           Fe  tau(  20) = (  -3.2376875   2.2860064   4.0386348  )
        21           C   tau(  21) = (   1.8539244   3.8919421   5.4946042  )
        22           O   tau(  22) = (   3.7040444  -0.8854360   6.6443527  )
        23           O   tau(  23) = (   1.2697494   0.8359318   5.1190879  )

   Crystallographic axes

     site n.     atom                  positions (cryst. coord.)
         1           Fe  tau(   1) = (  0.0000000  0.0000000 -0.1954028  )
         2           Fe  tau(   2) = (  0.0000007  0.4999995 -0.1954028  )
         3           Fe  tau(   3) = (  0.4999994  0.0000000 -0.1954028  )
         4           Fe  tau(   4) = ( -0.4999986  0.4999995 -0.1954028  )
         5           Fe  tau(   5) = (  0.2499987  0.2499987 -0.0977019  )
         6           Fe  tau(   6) = ( -0.2499987 -0.2499987 -0.0977019  )
         7           Fe  tau(   7) = (  0.2500007 -0.2499987 -0.0977019  )
         8           Fe  tau(   8) = ( -0.2500007  0.2499987 -0.0977019  )
         9           Fe  tau(   9) = (  0.0000000  0.0000000  0.0000000  )
        10           Fe  tau(  10) = (  0.0000007  0.4999995  0.0000000  )
        11           Fe  tau(  11) = (  0.4999994  0.0000000  0.0000000  )
        12           Fe  tau(  12) = ( -0.4999986  0.4999995  0.0000000  )
        13           Fe  tau(  13) = (  0.2507855  0.2490328  0.0974322  )
        14           Fe  tau(  14) = ( -0.2504265 -0.2497322  0.0977376  )
        15           Fe  tau(  15) = (  0.2512682 -0.2498944  0.0968319  )
        16           Fe  tau(  16) = ( -0.2502491  0.2485359  0.0968385  )
        17           Fe  tau(  17) = (  0.0055814 -0.0049641  0.1969931  )
        18           Fe  tau(  18) = ( -0.0005652  0.5003621  0.1910131  )
        19           Fe  tau(  19) = (  0.5119505 -0.0122039  0.1978588  )
        20           Fe  tau(  20) = ( -0.4951978  0.4942222  0.1970066  )
        21           C   tau(  21) = (  0.6583580  0.8414168  0.2680295  )
        22           O   tau(  22) = (  0.6911873 -0.1914265  0.3241148  )
        23           O   tau(  23) = (  0.3190546  0.1807239  0.2497116  )

     number of k points=    20  Marzari-Vanderbilt smearing, width (Ry)=  0.0400
                       cart. coord. in units 2pi/alat
        k(    1) = (   0.0000000   0.0000000   0.0000000), wk =   0.0625000
        k(    2) = (   0.0000000   0.0540486   0.0000000), wk =   0.1250000
        k(    3) = (   0.0000000  -0.1080973   0.0000000), wk =   0.0625000
        k(    4) = (   0.0509576   0.0180162   0.0000000), wk =   0.1250000
        k(    5) = (   0.0509576   0.0720649   0.0000000), wk =   0.1250000
        k(    6) = (   0.0509576  -0.0900811   0.0000000), wk =   0.1250000
        k(    7) = (   0.0509576  -0.0360324   0.0000000), wk =   0.1250000
        k(    8) = (  -0.1019151  -0.0360324   0.0000000), wk =   0.0625000
        k(    9) = (  -0.1019151   0.0180162   0.0000000), wk =   0.1250000
        k(   10) = (  -0.1019151  -0.1441297   0.0000000), wk =   0.0625000
        k(   11) = (   0.0000000   0.0000000   0.0000000), wk =   0.0625000
        k(   12) = (   0.0000000   0.0540486   0.0000000), wk =   0.1250000
        k(   13) = (   0.0000000  -0.1080973   0.0000000), wk =   0.0625000
        k(   14) = (   0.0509576   0.0180162   0.0000000), wk =   0.1250000
        k(   15) = (   0.0509576   0.0720649   0.0000000), wk =   0.1250000
        k(   16) = (   0.0509576  -0.0900811   0.0000000), wk =   0.1250000
        k(   17) = (   0.0509576  -0.0360324   0.0000000), wk =   0.1250000
        k(   18) = (  -0.1019151  -0.0360324   0.0000000), wk =   0.0625000
        k(   19) = (  -0.1019151   0.0180162   0.0000000), wk =   0.1250000
        k(   20) = (  -0.1019151  -0.1441297   0.0000000), wk =   0.0625000

                       cryst. coord.
        k(    1) = (   0.0000000   0.0000000   0.0000000), wk =   0.0625000
        k(    2) = (   0.0000000   0.2500000   0.0000000), wk =   0.1250000
        k(    3) = (   0.0000000  -0.5000000   0.0000000), wk =   0.0625000
        k(    4) = (   0.2500000   0.0000000   0.0000000), wk =   0.1250000
        k(    5) = (   0.2500000   0.2500000   0.0000000), wk =   0.1250000
        k(    6) = (   0.2500000  -0.5000000   0.0000000), wk =   0.1250000
        k(    7) = (   0.2500000  -0.2500000   0.0000000), wk =   0.1250000
        k(    8) = (  -0.5000000  -0.0000000   0.0000000), wk =   0.0625000
        k(    9) = (  -0.5000000   0.2500000   0.0000000), wk =   0.1250000
        k(   10) = (  -0.5000000  -0.5000000   0.0000000), wk =   0.0625000
        k(   11) = (   0.0000000   0.0000000   0.0000000), wk =   0.0625000
        k(   12) = (   0.0000000   0.2500000   0.0000000), wk =   0.1250000
        k(   13) = (   0.0000000  -0.5000000   0.0000000), wk =   0.0625000
        k(   14) = (   0.2500000   0.0000000   0.0000000), wk =   0.1250000
        k(   15) = (   0.2500000   0.2500000   0.0000000), wk =   0.1250000
        k(   16) = (   0.2500000  -0.5000000   0.0000000), wk =   0.1250000
        k(   17) = (   0.2500000  -0.2500000   0.0000000), wk =   0.1250000
        k(   18) = (  -0.5000000  -0.0000000   0.0000000), wk =   0.0625000
        k(   19) = (  -0.5000000   0.2500000   0.0000000), wk =   0.1250000
        k(   20) = (  -0.5000000  -0.5000000   0.0000000), wk =   0.0625000

     Dense  grid:  1199489 G-vectors     FFT dimensions: (  90,  90, 360)

     Smooth grid:   392779 G-vectors     FFT dimensions: (  60,  60, 243)

     Largest allocated arrays     est. size (Mb)     dimensions
        Kohn-Sham Wavefunctions        13.04 Mb     (   4230,  202)
        Atomic wavefunctions           17.56 Mb     (   4230,  272)
        NL pseudopotentials            24.79 Mb     (   4230,  384)
        Each V/rho on FFT grid          7.42 Mb     ( 243000,   2)
        Each G-vector array             0.76 Mb     (  99959)
        G-vector shells                 0.31 Mb     (  40422)
     Largest temporary arrays     est. size (Mb)     dimensions
        Auxiliary wavefunctions        52.15 Mb     (   4230,  808)
        Each subspace H/S matrix        2.49 Mb     ( 404, 404)
        Each <psi_i|beta_j> matrix      1.18 Mb     (    384,  202)
        Arrays for rho mixing          29.66 Mb     ( 243000,   8)

     Check: negative/imaginary core charge=   -0.000012    0.000000

     Initial potential from superposition of free atoms

     starting charge  335.99119, renormalised to  336.00000

     negative rho (up, down):  0.226E-04 0.890E-05
 --- in v_hubbard ---
Hubbard energy    0.0000
 -------
     Number of +U iterations with fixed ns =  0
     Starting occupations:
 --- enter write_ns ---
 LDA+U parameters:
U( 1)     =  0.00000000
alpha( 1) =  0.00000000
atom    1   Tr[ns(na)] (up, down, total) =   5.00000  1.00000  6.00000
   spin  1
    eigenvalues: 
  1.000  1.000  1.000  1.000  1.000
    eigenvectors:
  1.000  0.000  0.000  0.000  0.000
  0.000  1.000  0.000  0.000  0.000
  0.000  0.000  1.000  0.000  0.000
  0.000  0.000  0.000  1.000  0.000
  0.000  0.000  0.000  0.000  1.000
    occupations:
  1.000  0.000  0.000  0.000  0.000
  0.000  1.000  0.000  0.000  0.000
  0.000  0.000  1.000  0.000  0.000
  0.000  0.000  0.000  1.000  0.000
  0.000  0.000  0.000  0.000  1.000
   spin  2
    eigenvalues: 
  0.200  0.200  0.200  0.200  0.200
    eigenvectors:
  1.000  0.000  0.000  0.000  0.000
  0.000  1.000  0.000  0.000  0.000
  0.000  0.000  1.000  0.000  0.000
  0.000  0.000  0.000  1.000  0.000
  0.000  0.000  0.000  0.000  1.000
    occupations:
  0.200  0.000  0.000  0.000  0.000
  0.000  0.200  0.000  0.000  0.000
  0.000  0.000  0.200  0.000  0.000
  0.000  0.000  0.000  0.200  0.000
  0.000  0.000  0.000  0.000  0.200
atomic mag. moment =     4.000000
atom    2   Tr[ns(na)] (up, down, total) =   5.00000  1.00000  6.00000
   spin  1
    eigenvalues: 
  1.000  1.000  1.000  1.000  1.000
    eigenvectors:
  1.000  0.000  0.000  0.000  0.000
  0.000  1.000  0.000  0.000  0.000
  0.000  0.000  1.000  0.000  0.000
  0.000  0.000  0.000  1.000  0.000
  0.000  0.000  0.000  0.000  1.000
    occupations:
  1.000  0.000  0.000  0.000  0.000
  0.000  1.000  0.000  0.000  0.000
  0.000  0.000  1.000  0.000  0.000
  0.000  0.000  0.000  1.000  0.000
  0.000  0.000  0.000  0.000  1.000
   spin  2
    eigenvalues: 
  0.200  0.200  0.200  0.200  0.200
    eigenvectors:
  1.000  0.000  0.000  0.000  0.000
  0.000  1.000  0.000  0.000  0.000
  0.000  0.000  1.000  0.000  0.000
  0.000  0.000  0.000  1.000  0.000
  0.000  0.000  0.000  0.000  1.000
    occupations:
  0.200  0.000  0.000  0.000  0.000
  0.000  0.200  0.000  0.000  0.000
  0.000  0.000  0.200  0.000  0.000
  0.000  0.000  0.000  0.200  0.000
  0.000  0.000  0.000  0.000  0.200
atomic mag. moment =     4.000000
atom    3   Tr[ns(na)] (up, down, total) =   5.00000  1.00000  6.00000
   spin  1
    eigenvalues: 
  1.000  1.000  1.000  1.000  1.000
    eigenvectors:
  1.000  0.000  0.000  0.000  0.000
  0.000  1.000  0.000  0.000  0.000
  0.000  0.000  1.000  0.000  0.000
  0.000  0.000  0.000  1.000  0.000
  0.000  0.000  0.000  0.000  1.000
    occupations:
  1.000  0.000  0.000  0.000  0.000
  0.000  1.000  0.000  0.000  0.000
  0.000  0.000  1.000  0.000  0.000
  0.000  0.000  0.000  1.000  0.000
  0.000  0.000  0.000  0.000  1.000
   spin  2
    eigenvalues: 
  0.200  0.200  0.200  0.200  0.200
    eigenvectors:
  1.000  0.000  0.000  0.000  0.000
  0.000  1.000  0.000  0.000  0.000
  0.000  0.000  1.000  0.000  0.000
  0.000  0.000  0.000  1.000  0.000
  0.000  0.000  0.000  0.000  1.000
    occupations:
  0.200  0.000  0.000  0.000  0.000
  0.000  0.200  0.000  0.000  0.000
  0.000  0.000  0.200  0.000  0.000
  0.000  0.000  0.000  0.200  0.000
  0.000  0.000  0.000  0.000  0.200
atomic mag. moment =     4.000000
atom    4   Tr[ns(na)] (up, down, total) =   5.00000  1.00000  6.00000
   spin  1
    eigenvalues: 
  1.000  1.000  1.000  1.000  1.000
    eigenvectors:
  1.000  0.000  0.000  0.000  0.000
  0.000  1.000  0.000  0.000  0.000
  0.000  0.000  1.000  0.000  0.000
  0.000  0.000  0.000  1.000  0.000
  0.000  0.000  0.000  0.000  1.000
    occupations:
  1.000  0.000  0.000  0.000  0.000
  0.000  1.000  0.000  0.000  0.000
  0.000  0.000  1.000  0.000  0.000
  0.000  0.000  0.000  1.000  0.000
  0.000  0.000  0.000  0.000  1.000
   spin  2
    eigenvalues: 
  0.200  0.200  0.200  0.200  0.200
    eigenvectors:
  1.000  0.000  0.000  0.000  0.000
  0.000  1.000  0.000  0.000  0.000
  0.000  0.000  1.000  0.000  0.000
  0.000  0.000  0.000  1.000  0.000
  0.000  0.000  0.000  0.000  1.000
    occupations:
  0.200  0.000  0.000  0.000  0.000
  0.000  0.200  0.000  0.000  0.000
  0.000  0.000  0.200  0.000  0.000
  0.000  0.000  0.000  0.200  0.000
  0.000  0.000  0.000  0.000  0.200
atomic mag. moment =     4.000000
atom    5   Tr[ns(na)] (up, down, total) =   5.00000  1.00000  6.00000
   spin  1
    eigenvalues: 
  1.000  1.000  1.000  1.000  1.000
    eigenvectors:
  1.000  0.000  0.000  0.000  0.000
  0.000  1.000  0.000  0.000  0.000
  0.000  0.000  1.000  0.000  0.000
  0.000  0.000  0.000  1.000  0.000
  0.000  0.000  0.000  0.000  1.000
    occupations:
  1.000  0.000  0.000  0.000  0.000
  0.000  1.000  0.000  0.000  0.000
  0.000  0.000  1.000  0.000  0.000
  0.000  0.000  0.000  1.000  0.000
  0.000  0.000  0.000  0.000  1.000
   spin  2
    eigenvalues: 
  0.200  0.200  0.200  0.200  0.200
    eigenvectors:
  1.000  0.000  0.000  0.000  0.000
  0.000  1.000  0.000  0.000  0.000
  0.000  0.000  1.000  0.000  0.000
  0.000  0.000  0.000  1.000  0.000
  0.000  0.000  0.000  0.000  1.000
    occupations:
  0.200  0.000  0.000  0.000  0.000
  0.000  0.200  0.000  0.000  0.000
  0.000  0.000  0.200  0.000  0.000
  0.000  0.000  0.000  0.200  0.000
  0.000  0.000  0.000  0.000  0.200
atomic mag. moment =     4.000000
atom    6   Tr[ns(na)] (up, down, total) =   5.00000  1.00000  6.00000
   spin  1
    eigenvalues: 
  1.000  1.000  1.000  1.000  1.000
    eigenvectors:
  1.000  0.000  0.000  0.000  0.000
  0.000  1.000  0.000  0.000  0.000
  0.000  0.000  1.000  0.000  0.000
  0.000  0.000  0.000  1.000  0.000
  0.000  0.000  0.000  0.000  1.000
    occupations:
  1.000  0.000  0.000  0.000  0.000
  0.000  1.000  0.000  0.000  0.000
  0.000  0.000  1.000  0.000  0.000
  0.000  0.000  0.000  1.000  0.000
  0.000  0.000  0.000  0.000  1.000
   spin  2
    eigenvalues: 
  0.200  0.200  0.200  0.200  0.200
    eigenvectors:
  1.000  0.000  0.000  0.000  0.000
  0.000  1.000  0.000  0.000  0.000
  0.000  0.000  1.000  0.000  0.000
  0.000  0.000  0.000  1.000  0.000
  0.000  0.000  0.000  0.000  1.000
    occupations:
  0.200  0.000  0.000  0.000  0.000
  0.000  0.200  0.000  0.000  0.000
  0.000  0.000  0.200  0.000  0.000
  0.000  0.000  0.000  0.200  0.000
  0.000  0.000  0.000  0.000  0.200
atomic mag. moment =     4.000000
atom    7   Tr[ns(na)] (up, down, total) =   5.00000  1.00000  6.00000
   spin  1
    eigenvalues: 
  1.000  1.000  1.000  1.000  1.000
    eigenvectors:
  1.000  0.000  0.000  0.000  0.000
  0.000  1.000  0.000  0.000  0.000
  0.000  0.000  1.000  0.000  0.000
  0.000  0.000  0.000  1.000  0.000
  0.000  0.000  0.000  0.000  1.000
    occupations:
  1.000  0.000  0.000  0.000  0.000
  0.000  1.000  0.000  0.000  0.000
  0.000  0.000  1.000  0.000  0.000
  0.000  0.000  0.000  1.000  0.000
  0.000  0.000  0.000  0.000  1.000
   spin  2
    eigenvalues: 
  0.200  0.200  0.200  0.200  0.200
    eigenvectors:
  1.000  0.000  0.000  0.000  0.000
  0.000  1.000  0.000  0.000  0.000
  0.000  0.000  1.000  0.000  0.000
  0.000  0.000  0.000  1.000  0.000
  0.000  0.000  0.000  0.000  1.000
    occupations:
  0.200  0.000  0.000  0.000  0.000
  0.000  0.200  0.000  0.000  0.000
  0.000  0.000  0.200  0.000  0.000
  0.000  0.000  0.000  0.200  0.000
  0.000  0.000  0.000  0.000  0.200
atomic mag. moment =     4.000000
atom    8   Tr[ns(na)] (up, down, total) =   5.00000  1.00000  6.00000
   spin  1
    eigenvalues: 
  1.000  1.000  1.000  1.000  1.000
    eigenvectors:
  1.000  0.000  0.000  0.000  0.000
  0.000  1.000  0.000  0.000  0.000
  0.000  0.000  1.000  0.000  0.000
  0.000  0.000  0.000  1.000  0.000
  0.000  0.000  0.000  0.000  1.000
    occupations:
  1.000  0.000  0.000  0.000  0.000
  0.000  1.000  0.000  0.000  0.000
  0.000  0.000  1.000  0.000  0.000
  0.000  0.000  0.000  1.000  0.000
  0.000  0.000  0.000  0.000  1.000
   spin  2
    eigenvalues: 
  0.200  0.200  0.200  0.200  0.200
    eigenvectors:
  1.000  0.000  0.000  0.000  0.000
  0.000  1.000  0.000  0.000  0.000
  0.000  0.000  1.000  0.000  0.000
  0.000  0.000  0.000  1.000  0.000
  0.000  0.000  0.000  0.000  1.000
    occupations:
  0.200  0.000  0.000  0.000  0.000
  0.000  0.200  0.000  0.000  0.000
  0.000  0.000  0.200  0.000  0.000
  0.000  0.000  0.000  0.200  0.000
  0.000  0.000  0.000  0.000  0.200
atomic mag. moment =     4.000000
atom    9   Tr[ns(na)] (up, down, total) =   5.00000  1.00000  6.00000
   spin  1
    eigenvalues: 
  1.000  1.000  1.000  1.000  1.000
    eigenvectors:
  1.000  0.000  0.000  0.000  0.000
  0.000  1.000  0.000  0.000  0.000
  0.000  0.000  1.000  0.000  0.000
  0.000  0.000  0.000  1.000  0.000
  0.000  0.000  0.000  0.000  1.000
    occupations:
  1.000  0.000  0.000  0.000  0.000
  0.000  1.000  0.000  0.000  0.000
  0.000  0.000  1.000  0.000  0.000
  0.000  0.000  0.000  1.000  0.000
  0.000  0.000  0.000  0.000  1.000
   spin  2
    eigenvalues: 
  0.200  0.200  0.200  0.200  0.200
    eigenvectors:
  1.000  0.000  0.000  0.000  0.000
  0.000  1.000  0.000  0.000  0.000
  0.000  0.000  1.000  0.000  0.000
  0.000  0.000  0.000  1.000  0.000
  0.000  0.000  0.000  0.000  1.000
    occupations:
  0.200  0.000  0.000  0.000  0.000
  0.000  0.200  0.000  0.000  0.000
  0.000  0.000  0.200  0.000  0.000
  0.000  0.000  0.000  0.200  0.000
  0.000  0.000  0.000  0.000  0.200
atomic mag. moment =     4.000000
atom   10   Tr[ns(na)] (up, down, total) =   5.00000  1.00000  6.00000
   spin  1
    eigenvalues: 
  1.000  1.000  1.000  1.000  1.000
    eigenvectors:
  1.000  0.000  0.000  0.000  0.000
  0.000  1.000  0.000  0.000  0.000
  0.000  0.000  1.000  0.000  0.000
  0.000  0.000  0.000  1.000  0.000
  0.000  0.000  0.000  0.000  1.000
    occupations:
  1.000  0.000  0.000  0.000  0.000
  0.000  1.000  0.000  0.000  0.000
  0.000  0.000  1.000  0.000  0.000
  0.000  0.000  0.000  1.000  0.000
  0.000  0.000  0.000  0.000  1.000
   spin  2
    eigenvalues: 
  0.200  0.200  0.200  0.200  0.200
    eigenvectors:
  1.000  0.000  0.000  0.000  0.000
  0.000  1.000  0.000  0.000  0.000
  0.000  0.000  1.000  0.000  0.000
  0.000  0.000  0.000  1.000  0.000
  0.000  0.000  0.000  0.000  1.000
    occupations:
  0.200  0.000  0.000  0.000  0.000
  0.000  0.200  0.000  0.000  0.000
  0.000  0.000  0.200  0.000  0.000
  0.000  0.000  0.000  0.200  0.000
  0.000  0.000  0.000  0.000  0.200
atomic mag. moment =     4.000000
atom   11   Tr[ns(na)] (up, down, total) =   5.00000  1.00000  6.00000
   spin  1
    eigenvalues: 
  1.000  1.000  1.000  1.000  1.000
    eigenvectors:
  1.000  0.000  0.000  0.000  0.000
  0.000  1.000  0.000  0.000  0.000
  0.000  0.000  1.000  0.000  0.000
  0.000  0.000  0.000  1.000  0.000
  0.000  0.000  0.000  0.000  1.000
    occupations:
  1.000  0.000  0.000  0.000  0.000
  0.000  1.000  0.000  0.000  0.000
  0.000  0.000  1.000  0.000  0.000
  0.000  0.000  0.000  1.000  0.000
  0.000  0.000  0.000  0.000  1.000
   spin  2
    eigenvalues: 
  0.200  0.200  0.200  0.200  0.200
    eigenvectors:
  1.000  0.000  0.000  0.000  0.000
  0.000  1.000  0.000  0.000  0.000
  0.000  0.000  1.000  0.000  0.000
  0.000  0.000  0.000  1.000  0.000
  0.000  0.000  0.000  0.000  1.000
    occupations:
  0.200  0.000  0.000  0.000  0.000
  0.000  0.200  0.000  0.000  0.000
  0.000  0.000  0.200  0.000  0.000
  0.000  0.000  0.000  0.200  0.000
  0.000  0.000  0.000  0.000  0.200
atomic mag. moment =     4.000000
atom   12   Tr[ns(na)] (up, down, total) =   5.00000  1.00000  6.00000
   spin  1
    eigenvalues: 
  1.000  1.000  1.000  1.000  1.000
    eigenvectors:
  1.000  0.000  0.000  0.000  0.000
  0.000  1.000  0.000  0.000  0.000
  0.000  0.000  1.000  0.000  0.000
  0.000  0.000  0.000  1.000  0.000
  0.000  0.000  0.000  0.000  1.000
    occupations:
  1.000  0.000  0.000  0.000  0.000
  0.000  1.000  0.000  0.000  0.000
  0.000  0.000  1.000  0.000  0.000
  0.000  0.000  0.000  1.000  0.000
  0.000  0.000  0.000  0.000  1.000
   spin  2
    eigenvalues: 
  0.200  0.200  0.200  0.200  0.200
    eigenvectors:
  1.000  0.000  0.000  0.000  0.000
  0.000  1.000  0.000  0.000  0.000
  0.000  0.000  1.000  0.000  0.000
  0.000  0.000  0.000  1.000  0.000
  0.000  0.000  0.000  0.000  1.000
    occupations:
  0.200  0.000  0.000  0.000  0.000
  0.000  0.200  0.000  0.000  0.000
  0.000  0.000  0.200  0.000  0.000
  0.000  0.000  0.000  0.200  0.000
  0.000  0.000  0.000  0.000  0.200
atomic mag. moment =     4.000000
atom   13   Tr[ns(na)] (up, down, total) =   5.00000  1.00000  6.00000
   spin  1
    eigenvalues: 
  1.000  1.000  1.000  1.000  1.000
    eigenvectors:
  1.000  0.000  0.000  0.000  0.000
  0.000  1.000  0.000  0.000  0.000
  0.000  0.000  1.000  0.000  0.000
  0.000  0.000  0.000  1.000  0.000
  0.000  0.000  0.000  0.000  1.000
    occupations:
  1.000  0.000  0.000  0.000  0.000
  0.000  1.000  0.000  0.000  0.000
  0.000  0.000  1.000  0.000  0.000
  0.000  0.000  0.000  1.000  0.000
  0.000  0.000  0.000  0.000  1.000
   spin  2
    eigenvalues: 
  0.200  0.200  0.200  0.200  0.200
    eigenvectors:
  1.000  0.000  0.000  0.000  0.000
  0.000  1.000  0.000  0.000  0.000
  0.000  0.000  1.000  0.000  0.000
  0.000  0.000  0.000  1.000  0.000
  0.000  0.000  0.000  0.000  1.000
    occupations:
  0.200  0.000  0.000  0.000  0.000
  0.000  0.200  0.000  0.000  0.000
  0.000  0.000  0.200  0.000  0.000
  0.000  0.000  0.000  0.200  0.000
  0.000  0.000  0.000  0.000  0.200
atomic mag. moment =     4.000000
atom   14   Tr[ns(na)] (up, down, total) =   5.00000  1.00000  6.00000
   spin  1
    eigenvalues: 
  1.000  1.000  1.000  1.000  1.000
    eigenvectors:
  1.000  0.000  0.000  0.000  0.000
  0.000  1.000  0.000  0.000  0.000
  0.000  0.000  1.000  0.000  0.000
  0.000  0.000  0.000  1.000  0.000
  0.000  0.000  0.000  0.000  1.000
    occupations:
  1.000  0.000  0.000  0.000  0.000
  0.000  1.000  0.000  0.000  0.000
  0.000  0.000  1.000  0.000  0.000
  0.000  0.000  0.000  1.000  0.000
  0.000  0.000  0.000  0.000  1.000
   spin  2
    eigenvalues: 
  0.200  0.200  0.200  0.200  0.200
    eigenvectors:
  1.000  0.000  0.000  0.000  0.000
  0.000  1.000  0.000  0.000  0.000
  0.000  0.000  1.000  0.000  0.000
  0.000  0.000  0.000  1.000  0.000
  0.000  0.000  0.000  0.000  1.000
    occupations:
  0.200  0.000  0.000  0.000  0.000
  0.000  0.200  0.000  0.000  0.000
  0.000  0.000  0.200  0.000  0.000
  0.000  0.000  0.000  0.200  0.000
  0.000  0.000  0.000  0.000  0.200
atomic mag. moment =     4.000000
atom   15   Tr[ns(na)] (up, down, total) =   5.00000  1.00000  6.00000
   spin  1
    eigenvalues: 
  1.000  1.000  1.000  1.000  1.000
    eigenvectors:
  1.000  0.000  0.000  0.000  0.000
  0.000  1.000  0.000  0.000  0.000
  0.000  0.000  1.000  0.000  0.000
  0.000  0.000  0.000  1.000  0.000
  0.000  0.000  0.000  0.000  1.000
    occupations:
  1.000  0.000  0.000  0.000  0.000
  0.000  1.000  0.000  0.000  0.000
  0.000  0.000  1.000  0.000  0.000
  0.000  0.000  0.000  1.000  0.000
  0.000  0.000  0.000  0.000  1.000
   spin  2
    eigenvalues: 
  0.200  0.200  0.200  0.200  0.200
    eigenvectors:
  1.000  0.000  0.000  0.000  0.000
  0.000  1.000  0.000  0.000  0.000
  0.000  0.000  1.000  0.000  0.000
  0.000  0.000  0.000  1.000  0.000
  0.000  0.000  0.000  0.000  1.000
    occupations:
  0.200  0.000  0.000  0.000  0.000
  0.000  0.200  0.000  0.000  0.000
  0.000  0.000  0.200  0.000  0.000
  0.000  0.000  0.000  0.200  0.000
  0.000  0.000  0.000  0.000  0.200
atomic mag. moment =     4.000000
atom   16   Tr[ns(na)] (up, down, total) =   5.00000  1.00000  6.00000
   spin  1
    eigenvalues: 
  1.000  1.000  1.000  1.000  1.000
    eigenvectors:
  1.000  0.000  0.000  0.000  0.000
  0.000  1.000  0.000  0.000  0.000
  0.000  0.000  1.000  0.000  0.000
  0.000  0.000  0.000  1.000  0.000
  0.000  0.000  0.000  0.000  1.000
    occupations:
  1.000  0.000  0.000  0.000  0.000
  0.000  1.000  0.000  0.000  0.000
  0.000  0.000  1.000  0.000  0.000
  0.000  0.000  0.000  1.000  0.000
  0.000  0.000  0.000  0.000  1.000
   spin  2
    eigenvalues: 
  0.200  0.200  0.200  0.200  0.200
    eigenvectors:
  1.000  0.000  0.000  0.000  0.000
  0.000  1.000  0.000  0.000  0.000
  0.000  0.000  1.000  0.000  0.000
  0.000  0.000  0.000  1.000  0.000
  0.000  0.000  0.000  0.000  1.000
    occupations:
  0.200  0.000  0.000  0.000  0.000
  0.000  0.200  0.000  0.000  0.000
  0.000  0.000  0.200  0.000  0.000
  0.000  0.000  0.000  0.200  0.000
  0.000  0.000  0.000  0.000  0.200
atomic mag. moment =     4.000000
atom   17   Tr[ns(na)] (up, down, total) =   5.00000  1.00000  6.00000
   spin  1
    eigenvalues: 
  1.000  1.000  1.000  1.000  1.000
    eigenvectors:
  1.000  0.000  0.000  0.000  0.000
  0.000  1.000  0.000  0.000  0.000
  0.000  0.000  1.000  0.000  0.000
  0.000  0.000  0.000  1.000  0.000
  0.000  0.000  0.000  0.000  1.000
    occupations:
  1.000  0.000  0.000  0.000  0.000
  0.000  1.000  0.000  0.000  0.000
  0.000  0.000  1.000  0.000  0.000
  0.000  0.000  0.000  1.000  0.000
  0.000  0.000  0.000  0.000  1.000
   spin  2
    eigenvalues: 
  0.200  0.200  0.200  0.200  0.200
    eigenvectors:
  1.000  0.000  0.000  0.000  0.000
  0.000  1.000  0.000  0.000  0.000
  0.000  0.000  1.000  0.000  0.000
  0.000  0.000  0.000  1.000  0.000
  0.000  0.000  0.000  0.000  1.000
    occupations:
  0.200  0.000  0.000  0.000  0.000
  0.000  0.200  0.000  0.000  0.000
  0.000  0.000  0.200  0.000  0.000
  0.000  0.000  0.000  0.200  0.000
  0.000  0.000  0.000  0.000  0.200
atomic mag. moment =     4.000000
atom   18   Tr[ns(na)] (up, down, total) =   5.00000  1.00000  6.00000
   spin  1
    eigenvalues: 
  1.000  1.000  1.000  1.000  1.000
    eigenvectors:
  1.000  0.000  0.000  0.000  0.000
  0.000  1.000  0.000  0.000  0.000
  0.000  0.000  1.000  0.000  0.000
  0.000  0.000  0.000  1.000  0.000
  0.000  0.000  0.000  0.000  1.000
    occupations:
  1.000  0.000  0.000  0.000  0.000
  0.000  1.000  0.000  0.000  0.000
  0.000  0.000  1.000  0.000  0.000
  0.000  0.000  0.000  1.000  0.000
  0.000  0.000  0.000  0.000  1.000
   spin  2
    eigenvalues: 
  0.200  0.200  0.200  0.200  0.200
    eigenvectors:
  1.000  0.000  0.000  0.000  0.000
  0.000  1.000  0.000  0.000  0.000
  0.000  0.000  1.000  0.000  0.000
  0.000  0.000  0.000  1.000  0.000
  0.000  0.000  0.000  0.000  1.000
    occupations:
  0.200  0.000  0.000  0.000  0.000
  0.000  0.200  0.000  0.000  0.000
  0.000  0.000  0.200  0.000  0.000
  0.000  0.000  0.000  0.200  0.000
  0.000  0.000  0.000  0.000  0.200
atomic mag. moment =     4.000000
atom   19   Tr[ns(na)] (up, down, total) =   5.00000  1.00000  6.00000
   spin  1
    eigenvalues: 
  1.000  1.000  1.000  1.000  1.000
    eigenvectors:
  1.000  0.000  0.000  0.000  0.000
  0.000  1.000  0.000  0.000  0.000
  0.000  0.000  1.000  0.000  0.000
  0.000  0.000  0.000  1.000  0.000
  0.000  0.000  0.000  0.000  1.000
    occupations:
  1.000  0.000  0.000  0.000  0.000
  0.000  1.000  0.000  0.000  0.000
  0.000  0.000  1.000  0.000  0.000
  0.000  0.000  0.000  1.000  0.000
  0.000  0.000  0.000  0.000  1.000
   spin  2
    eigenvalues: 
  0.200  0.200  0.200  0.200  0.200
    eigenvectors:
  1.000  0.000  0.000  0.000  0.000
  0.000  1.000  0.000  0.000  0.000
  0.000  0.000  1.000  0.000  0.000
  0.000  0.000  0.000  1.000  0.000
  0.000  0.000  0.000  0.000  1.000
    occupations:
  0.200  0.000  0.000  0.000  0.000
  0.000  0.200  0.000  0.000  0.000
  0.000  0.000  0.200  0.000  0.000
  0.000  0.000  0.000  0.200  0.000
  0.000  0.000  0.000  0.000  0.200
atomic mag. moment =     4.000000
atom   20   Tr[ns(na)] (up, down, total) =   5.00000  1.00000  6.00000
   spin  1
    eigenvalues: 
  1.000  1.000  1.000  1.000  1.000
    eigenvectors:
  1.000  0.000  0.000  0.000  0.000
  0.000  1.000  0.000  0.000  0.000
  0.000  0.000  1.000  0.000  0.000
  0.000  0.000  0.000  1.000  0.000
  0.000  0.000  0.000  0.000  1.000
    occupations:
  1.000  0.000  0.000  0.000  0.000
  0.000  1.000  0.000  0.000  0.000
  0.000  0.000  1.000  0.000  0.000
  0.000  0.000  0.000  1.000  0.000
  0.000  0.000  0.000  0.000  1.000
   spin  2
    eigenvalues: 
  0.200  0.200  0.200  0.200  0.200
    eigenvectors:
  1.000  0.000  0.000  0.000  0.000
  0.000  1.000  0.000  0.000  0.000
  0.000  0.000  1.000  0.000  0.000
  0.000  0.000  0.000  1.000  0.000
  0.000  0.000  0.000  0.000  1.000
    occupations:
  0.200  0.000  0.000  0.000  0.000
  0.000  0.200  0.000  0.000  0.000
  0.000  0.000  0.200  0.000  0.000
  0.000  0.000  0.000  0.200  0.000
  0.000  0.000  0.000  0.000  0.200
atomic mag. moment =     4.000000
N of occupied +U levels = 120.0000000
 --- exit write_ns ---
 Atomic wfc used for LDA+U Projector are NOT orthogonalized
     Starting wfc are  272 randomized atomic wfcs
     Checking if some PAW data can be deallocated... 
       node    0, deallocated PAW data for type:  2
       node    0, deallocated PAW data for type:  3
       node    1, deallocated PAW data for type:  2
       node    1, deallocated PAW data for type:  3
       node    2, deallocated PAW data for type:  2
       node    2, deallocated PAW data for type:  3
       node    3, deallocated PAW data for type:  2
       node    3, deallocated PAW data for type:  3
       node    4, deallocated PAW data for type:  2
       node    4, deallocated PAW data for type:  3
       node    5, deallocated PAW data for type:  2
       node    5, deallocated PAW data for type:  3
       node    6, deallocated PAW data for type:  2
       node    6, deallocated PAW data for type:  3
       node    7, deallocated PAW data for type:  2
       node    7, deallocated PAW data for type:  3
       node    8, deallocated PAW data for type:  2
       node    8, deallocated PAW data for type:  3
       node    9, deallocated PAW data for type:  2
       node    9, deallocated PAW data for type:  3
       node   10, deallocated PAW data for type:  2
       node   10, deallocated PAW data for type:  3
       node   11, deallocated PAW data for type:  2
       node   11, deallocated PAW data for type:  3
       node   12, deallocated PAW data for type:  2
       node   12, deallocated PAW data for type:  3
       node   13, deallocated PAW data for type:  2
       node   13, deallocated PAW data for type:  3
       node   14, deallocated PAW data for type:  2
       node   14, deallocated PAW data for type:  3
       node   15, deallocated PAW data for type:  2
       node   15, deallocated PAW data for type:  3
       node   16, deallocated PAW data for type:  2
       node   16, deallocated PAW data for type:  3
       node   17, deallocated PAW data for type:  2
       node   17, deallocated PAW data for type:  3
       node   18, deallocated PAW data for type:  2
       node   18, deallocated PAW data for type:  3
       node   19, deallocated PAW data for type:  2
       node   19, deallocated PAW data for type:  3
       node   20, deallocated PAW data for type:  2
       node   20, deallocated PAW data for type:  3
       node   21, deallocated PAW data for type:  2
       node   21, deallocated PAW data for type:  3
       node   22, deallocated PAW data for type:  2
       node   22, deallocated PAW data for type:  3
       node   23, deallocated PAW data for type:  2
       node   23, deallocated PAW data for type:  3
       node   24, deallocated PAW data for type:  2
       node   24, deallocated PAW data for type:  3
       node   25, deallocated PAW data for type:  2
       node   25, deallocated PAW data for type:  3
       node   26, deallocated PAW data for type:  2
       node   26, deallocated PAW data for type:  3
       node   27, deallocated PAW data for type:  2
       node   27, deallocated PAW data for type:  3
       node   28, deallocated PAW data for type:  2
       node   28, deallocated PAW data for type:  3
       node   29, deallocated PAW data for type:  2
       node   29, deallocated PAW data for type:  3
       node   30, deallocated PAW data for type:  2
       node   30, deallocated PAW data for type:  3
       node   31, deallocated PAW data for type:  2
       node   31, deallocated PAW data for type:  3
       node   32, deallocated PAW data for type:  2
       node   32, deallocated PAW data for type:  3
       node   33, deallocated PAW data for type:  2
       node   33, deallocated PAW data for type:  3
       node   34, deallocated PAW data for type:  2
       node   34, deallocated PAW data for type:  3
       node   35, deallocated PAW data for type:  2
       node   35, deallocated PAW data for type:  3
       node   36, deallocated PAW data for type:  2
       node   36, deallocated PAW data for type:  3
       node   37, deallocated PAW data for type:  2
       node   37, deallocated PAW data for type:  3
       node   38, deallocated PAW data for type:  2
       node   38, deallocated PAW data for type:  3
       node   39, deallocated PAW data for type:  2
       node   39, deallocated PAW data for type:  3
       node   40, deallocated PAW data for type:  2
       node   40, deallocated PAW data for type:  3
       node   41, deallocated PAW data for type:  2
       node   41, deallocated PAW data for type:  3
       node   42, deallocated PAW data for type:  1
       node   42, deallocated PAW data for type:  3
       node   43, deallocated PAW data for type:  1
       node   43, deallocated PAW data for type:  3
       node   44, deallocated PAW data for type:  1
       node   44, deallocated PAW data for type:  2
       node   45, deallocated PAW data for type:  1
       node   45, deallocated PAW data for type:  2
       node   46, deallocated PAW data for type:  1
       node   46, deallocated PAW data for type:  2
       node   47, deallocated PAW data for type:  1
       node   47, deallocated PAW data for type:  2

     total cpu time spent up to now is       46.4 secs

     per-process dynamical memory:   319.9 Mb

     Self-consistent Calculation

     iteration #  1     ecut=    95.00 Ry     beta=0.50
     Davidson diagonalization with overlap
     ethr =  1.00E-02,  avg # of iterations =  3.0
 --- enter write_ns ---
 LDA+U parameters:
U( 1)     =  0.00000000
alpha( 1) =  0.00000000
atom    1   Tr[ns(na)] (up, down, total) =   4.97537  1.14470  6.12007
   spin  1
    eigenvalues: 
  0.992  0.995  0.996  0.996  0.996
    eigenvectors:
  0.966  0.001  0.030  0.002  0.000
  0.000  0.423  0.000  0.000  0.576
  0.001  0.575  0.000  0.000  0.423
  0.002  0.000  0.000  0.997  0.001
  0.030  0.000  0.970  0.000  0.000
    occupations:
  0.992 -0.000 -0.000  0.000 -0.001
 -0.000  0.996 -0.001  0.000 -0.000
 -0.000 -0.001  0.995 -0.000 -0.000
  0.000  0.000 -0.000  0.996  0.000
 -0.001 -0.000 -0.000  0.000  0.996
   spin  2
    eigenvalues: 
  0.163  0.204  0.225  0.242  0.311
    eigenvectors:
  0.000  0.000  0.994  0.000  0.006
  0.331  0.669  0.000  0.000  0.000
  0.669  0.331  0.000  0.000  0.000
  0.000  0.000  0.000  0.888  0.112
  0.000  0.000  0.005  0.112  0.882
    occupations:
  0.226 -0.000 -0.000 -0.002  0.006
 -0.000  0.190 -0.019 -0.000 -0.000
 -0.000 -0.019  0.176  0.000 -0.000
 -0.002 -0.000  0.000  0.250 -0.022
  0.006 -0.000 -0.000 -0.022  0.303
atomic mag. moment =     3.830669
atom    2   Tr[ns(na)] (up, down, total) =   4.97480  1.14397  6.11876
   spin  1
    eigenvalues: 
  0.992  0.995  0.996  0.996  0.996
    eigenvectors:
  0.952  0.000  0.048  0.000  0.000
  0.000  0.408  0.000  0.000  0.592
  0.000  0.591  0.001  0.001  0.408
  0.006  0.000  0.092  0.901  0.000
  0.042  0.001  0.859  0.098  0.000
    occupations:
  0.992 -0.000  0.000  0.000 -0.001
 -0.000  0.996 -0.001  0.000  0.000
  0.000 -0.001  0.996  0.000  0.000
  0.000  0.000  0.000  0.996  0.000
 -0.001  0.000  0.000  0.000  0.995
   spin  2
    eigenvalues: 
  0.162  0.204  0.226  0.242  0.311
    eigenvectors:
  0.000  0.000  0.994  0.000  0.006
  0.333  0.667  0.000  0.000  0.000
  0.667  0.333  0.000  0.000  0.000
  0.000  0.000  0.002  0.888  0.110
  0.000  0.000  0.005  0.112  0.884
    occupations:
  0.226  0.000  0.000 -0.002  0.006
  0.000  0.190 -0.020  0.000  0.000
  0.000 -0.020  0.176 -0.000  0.001
 -0.002  0.000 -0.000  0.249 -0.022
  0.006  0.000  0.001 -0.022  0.303
atomic mag. moment =     3.830832
atom    3   Tr[ns(na)] (up, down, total) =   4.97580  1.14423  6.12003
   spin  1
    eigenvalues: 
  0.993  0.995  0.996  0.996  0.996
    eigenvectors:
  0.955  0.000  0.045  0.000  0.000
  0.000  0.391  0.000  0.001  0.608
  0.000  0.609  0.000  0.000  0.391
  0.005  0.000  0.106  0.887  0.001
  0.039  0.000  0.848  0.112  0.000
    occupations:
  0.993 -0.000  0.000  0.000 -0.001
 -0.000  0.996 -0.001 -0.000 -0.000
  0.000 -0.001  0.995 -0.000  0.000
  0.000 -0.000 -0.000  0.996  0.000
 -0.001 -0.000  0.000  0.000  0.996
   spin  2
    eigenvalues: 
  0.163  0.204  0.225  0.242  0.311
    eigenvectors:
  0.000  0.000  0.994  0.001  0.006
  0.334  0.666  0.000  0.000  0.000
  0.666  0.334  0.000  0.000  0.000
  0.000  0.000  0.002  0.885  0.113
  0.000  0.000  0.004  0.114  0.882
    occupations:
  0.226 -0.000 -0.000 -0.003  0.006
 -0.000  0.190 -0.019 -0.000 -0.000
 -0.000 -0.019  0.176 -0.000  0.000
 -0.003 -0.000 -0.000  0.250 -0.022
  0.006 -0.000  0.000 -0.022  0.303
atomic mag. moment =     3.831568
atom    4   Tr[ns(na)] (up, down, total) =   4.97535  1.14162  6.11697
   spin  1
    eigenvalues: 
  0.992  0.995  0.996  0.996  0.996
    eigenvectors:
  0.968  0.001  0.028  0.003  0.000
  0.001  0.354  0.000  0.000  0.645
  0.000  0.645  0.000  0.000  0.354
  0.004  0.000  0.398  0.598  0.000
  0.027  0.000  0.573  0.399  0.000
    occupations:
  0.992  0.000  0.000  0.000 -0.001
  0.000  0.996 -0.001 -0.000 -0.000
  0.000 -0.001  0.995 -0.000 -0.000
  0.000 -0.000 -0.000  0.996  0.000
 -0.001 -0.000 -0.000  0.000  0.996
   spin  2
    eigenvalues: 
  0.162  0.203  0.224  0.242  0.311
    eigenvectors:
  0.000  0.000  0.994  0.000  0.006
  0.338  0.662  0.000  0.000  0.000
  0.662  0.338  0.000  0.000  0.000
  0.000  0.000  0.001  0.890  0.109
  0.000  0.000  0.005  0.110  0.885
    occupations:
  0.225 -0.000  0.000 -0.002  0.006
 -0.000  0.189 -0.020 -0.000  0.000
  0.000 -0.020  0.176  0.000  0.000
 -0.002 -0.000  0.000  0.249 -0.021
  0.006  0.000  0.000 -0.021  0.303
atomic mag. moment =     3.833730
atom    5   Tr[ns(na)] (up, down, total) =   4.97557  2.10963  7.08520
   spin  1
    eigenvalues: 
  0.994  0.994  0.995  0.996  0.996
    eigenvectors:
  0.560  0.417  0.000  0.016  0.007
  0.000  0.000  0.323  0.256  0.420
  0.000  0.000  0.676  0.134  0.190
  0.423  0.449  0.000  0.080  0.047
  0.017  0.134  0.000  0.513  0.336
    occupations:
  0.994  0.000 -0.000  0.000 -0.000
  0.000  0.996 -0.000 -0.000  0.000
 -0.000 -0.000  0.996  0.000 -0.000
  0.000 -0.000  0.000  0.994 -0.001
 -0.000  0.000 -0.000 -0.001  0.996
   spin  2
    eigenvalues: 
  0.372  0.373  0.446  0.456  0.462
    eigenvectors:
  0.166  0.064  0.002  0.760  0.007
  0.190  0.475  0.333  0.001  0.000
  0.094  0.241  0.662  0.002  0.001
  0.061  0.025  0.001  0.005  0.907
  0.488  0.194  0.001  0.231  0.085
    occupations:
  0.437  0.000 -0.001 -0.012  0.033
  0.000  0.397  0.035 -0.000 -0.001
 -0.001  0.035  0.421 -0.000 -0.000
 -0.012 -0.000 -0.000  0.455  0.022
  0.033 -0.001 -0.000  0.022  0.399
atomic mag. moment =     2.865938
atom    6   Tr[ns(na)] (up, down, total) =   4.97572  2.11024  7.08596
   spin  1
    eigenvalues: 
  0.994  0.994  0.995  0.996  0.996
    eigenvectors:
  0.749  0.228  0.000  0.009  0.015
  0.000  0.000  0.325  0.379  0.295
  0.000  0.000  0.674  0.182  0.144
  0.249  0.624  0.000  0.055  0.072
  0.002  0.148  0.000  0.375  0.474
    occupations:
  0.994  0.000 -0.000  0.000 -0.000
  0.000  0.996 -0.000  0.000 -0.000
 -0.000 -0.000  0.996 -0.000  0.000
  0.000  0.000 -0.000  0.994 -0.001
 -0.000 -0.000  0.000 -0.001  0.996
   spin  2
    eigenvalues: 
  0.373  0.373  0.447  0.455  0.463
    eigenvectors:
  0.002  0.225  0.003  0.769  0.000
  0.659  0.008  0.331  0.002  0.000
  0.330  0.003  0.664  0.003  0.001
  0.001  0.084  0.000  0.029  0.885
  0.007  0.680  0.002  0.197  0.114
    occupations:
  0.436  0.001  0.001 -0.011  0.032
  0.001  0.397  0.035 -0.000 -0.000
  0.001  0.035  0.422  0.001 -0.000
 -0.011 -0.000  0.001  0.455  0.022
  0.032 -0.000 -0.000  0.022  0.400
atomic mag. moment =     2.865486
atom    7   Tr[ns(na)] (up, down, total) =   4.97510  2.10855  7.08365
   spin  1
    eigenvalues: 
  0.994  0.994  0.995  0.996  0.996
    eigenvectors:
  0.685  0.266  0.000  0.049  0.000
  0.000  0.001  0.356  0.001  0.643
  0.002  0.000  0.636  0.016  0.346
  0.313  0.562  0.002  0.119  0.005
  0.000  0.171  0.007  0.816  0.006
    occupations:
  0.994  0.000  0.000  0.000 -0.000
  0.000  0.996 -0.001  0.000 -0.000
  0.000 -0.001  0.995 -0.000 -0.000
  0.000  0.000 -0.000  0.994 -0.001
 -0.000 -0.000 -0.000 -0.001  0.996
   spin  2
    eigenvalues: 
  0.371  0.372  0.447  0.455  0.462
    eigenvectors:
  0.228  0.000  0.008  0.764  0.000
  0.001  0.662  0.334  0.003  0.000
  0.000  0.337  0.656  0.006  0.000
  0.085  0.000  0.000  0.031  0.884
  0.686  0.001  0.002  0.196  0.115
    occupations:
  0.436  0.000  0.000 -0.012  0.033
  0.000  0.398  0.036  0.000  0.000
  0.000  0.036  0.422 -0.000  0.001
 -0.012  0.000 -0.000  0.454  0.023
  0.033  0.000  0.001  0.023  0.398
atomic mag. moment =     2.866550
atom    8   Tr[ns(na)] (up, down, total) =   4.97507  2.10804  7.08311
   spin  1
    eigenvalues: 
  0.994  0.994  0.995  0.996  0.996
    eigenvectors:
  0.599  0.351  0.000  0.050  0.000
  0.000  0.003  0.303  0.001  0.693
  0.000  0.000  0.686  0.008  0.306
  0.398  0.477  0.000  0.123  0.001
  0.003  0.169  0.010  0.818  0.000
    occupations:
  0.994 -0.000 -0.000  0.000 -0.000
 -0.000  0.996 -0.001 -0.000  0.000
 -0.000 -0.001  0.995 -0.000  0.000
  0.000 -0.000 -0.000  0.994 -0.001
 -0.000  0.000  0.000 -0.001  0.996
   spin  2
    eigenvalues: 
  0.372  0.372  0.447  0.455  0.462
    eigenvectors:
  0.203  0.025  0.011  0.762  0.000
  0.075  0.594  0.327  0.004  0.000
  0.037  0.294  0.659  0.010  0.000
  0.077  0.010  0.000  0.025  0.888
  0.608  0.078  0.003  0.200  0.112
    occupations:
  0.436 -0.000 -0.001 -0.012  0.033
 -0.000  0.397  0.035  0.000 -0.000
 -0.001  0.035  0.422  0.000 -0.000
 -0.012  0.000  0.000  0.454  0.023
  0.033 -0.000 -0.000  0.023  0.399
atomic mag. moment =     2.867034
atom    9   Tr[ns(na)] (up, down, total) =   4.97642  2.10423  7.08065
   spin  1
    eigenvalues: 
  0.994  0.994  0.995  0.996  0.996
    eigenvectors:
  0.000  0.822  0.000  0.103  0.075
  0.000  0.000  0.259  0.289  0.451
  0.000  0.000  0.740  0.112  0.148
  0.869  0.028  0.000  0.061  0.042
  0.131  0.150  0.001  0.435  0.284
    occupations:
  0.995 -0.000 -0.000  0.000 -0.001
 -0.000  0.996 -0.001 -0.000  0.000
 -0.000 -0.001  0.996 -0.000 -0.000
  0.000 -0.000 -0.000  0.994 -0.001
 -0.001  0.000 -0.000 -0.001  0.996
   spin  2
    eigenvalues: 
  0.369  0.373  0.449  0.456  0.457
    eigenvectors:
  0.274  0.000  0.000  0.016  0.709
  0.000  0.673  0.312  0.015  0.000
  0.000  0.327  0.647  0.025  0.001
  0.073  0.000  0.040  0.796  0.092
  0.653  0.000  0.002  0.148  0.197
    occupations:
  0.433 -0.000 -0.001 -0.012  0.037
 -0.000  0.398  0.036  0.001  0.001
 -0.001  0.036  0.424  0.000  0.001
 -0.012  0.001  0.000  0.449  0.019
  0.037  0.001  0.001  0.019  0.400
atomic mag. moment =     2.872187
atom   10   Tr[ns(na)] (up, down, total) =   4.97500  2.12446  7.09946
   spin  1
    eigenvalues: 
  0.994  0.994  0.995  0.996  0.996
    eigenvectors:
  0.786  0.000  0.000  0.213  0.001
  0.001  0.001  0.321  0.013  0.665
  0.000  0.001  0.677  0.006  0.315
  0.026  0.885  0.002  0.086  0.002
  0.187  0.113  0.000  0.682  0.017
    occupations:
  0.994 -0.000  0.000  0.000 -0.001
 -0.000  0.996 -0.001  0.000 -0.000
  0.000 -0.001  0.995 -0.000  0.000
  0.000  0.000 -0.000  0.994 -0.000
 -0.001 -0.000  0.000 -0.000  0.995
   spin  2
    eigenvalues: 
  0.374  0.376  0.456  0.458  0.460
    eigenvectors:
  0.002  0.271  0.008  0.038  0.681
  0.664  0.004  0.274  0.045  0.013
  0.330  0.002  0.551  0.096  0.022
  0.001  0.080  0.160  0.652  0.107
  0.003  0.644  0.007  0.168  0.177
    occupations:
  0.437 -0.001  0.000 -0.013  0.035
 -0.001  0.401  0.039  0.000 -0.000
  0.000  0.039  0.429  0.001 -0.000
 -0.013  0.000  0.001  0.452  0.018
  0.035 -0.000 -0.000  0.018  0.406
atomic mag. moment =     2.850544
atom   11   Tr[ns(na)] (up, down, total) =   4.97611  2.13199  7.10809
   spin  1
    eigenvalues: 
  0.994  0.994  0.995  0.996  0.996
    eigenvectors:
  0.791  0.000  0.000  0.000  0.209
  0.002  0.000  0.327  0.667  0.004
  0.001  0.000  0.673  0.325  0.001
  0.022  0.891  0.000  0.001  0.086
  0.184  0.109  0.000  0.007  0.700
    occupations:
  0.995  0.000 -0.000  0.000 -0.001
  0.000  0.996 -0.001 -0.000  0.000
 -0.000 -0.001  0.996  0.000 -0.000
  0.000 -0.000  0.000  0.994 -0.001
 -0.001  0.000 -0.000 -0.001  0.996
   spin  2
    eigenvalues: 
  0.373  0.377  0.459  0.460  0.463
    eigenvectors:
  0.003  0.267  0.000  0.693  0.037
  0.655  0.008  0.067  0.013  0.257
  0.332  0.004  0.129  0.025  0.509
  0.001  0.080  0.709  0.076  0.134
  0.008  0.641  0.094  0.193  0.064
    occupations:
  0.438 -0.000 -0.000 -0.012  0.035
 -0.000  0.403  0.042 -0.001 -0.001
 -0.000  0.042  0.432 -0.001 -0.001
 -0.012 -0.001 -0.001  0.453  0.019
  0.035 -0.001 -0.001  0.019  0.406
atomic mag. moment =     2.844122
atom   12   Tr[ns(na)] (up, down, total) =   4.97647  2.10544  7.08191
   spin  1
    eigenvalues: 
  0.994  0.994  0.995  0.996  0.996
    eigenvectors:
  0.008  0.815  0.000  0.087  0.090
  0.000  0.000  0.418  0.298  0.284
  0.000  0.001  0.581  0.197  0.221
  0.870  0.049  0.001  0.044  0.036
  0.121  0.135  0.001  0.374  0.369
    occupations:
  0.995  0.000  0.000  0.000 -0.001
  0.000  0.996 -0.001  0.000  0.000
  0.000 -0.001  0.996 -0.000 -0.000
  0.000  0.000 -0.000  0.994 -0.001
 -0.001  0.000 -0.000 -0.001  0.996
   spin  2
    eigenvalues: 
  0.369  0.373  0.450  0.456  0.458
    eigenvectors:
  0.274  0.001  0.000  0.006  0.719
  0.007  0.661  0.326  0.006  0.001
  0.001  0.333  0.653  0.013  0.001
  0.089  0.001  0.014  0.886  0.011
  0.630  0.005  0.007  0.090  0.268
    occupations:
  0.433  0.001  0.001 -0.014  0.037
  0.001  0.398  0.036  0.001 -0.001
  0.001  0.036  0.424  0.001 -0.001
 -0.014  0.001  0.001  0.448  0.020
  0.037 -0.001 -0.001  0.020  0.401
atomic mag. moment =     2.871035
atom   13   Tr[ns(na)] (up, down, total) =   4.97721  2.08591  7.06312
   spin  1
    eigenvalues: 
  0.994  0.995  0.995  0.996  0.997
    eigenvectors:
  0.001  0.734  0.000  0.082  0.183
  0.002  0.005  0.327  0.367  0.298
  0.004  0.003  0.667  0.177  0.150
  0.875  0.038  0.006  0.041  0.040
  0.118  0.220  0.001  0.333  0.329
    occupations:
  0.995 -0.000  0.000  0.000 -0.001
 -0.000  0.996 -0.001 -0.000  0.000
  0.000 -0.001  0.996  0.000 -0.000
  0.000 -0.000  0.000  0.995 -0.001
 -0.001  0.000 -0.000 -0.001  0.996
   spin  2
    eigenvalues: 
  0.365  0.373  0.432  0.455  0.461
    eigenvectors:
  0.000  0.184  0.000  0.807  0.009
  0.668  0.000  0.320  0.001  0.012
  0.332  0.000  0.645  0.000  0.023
  0.000  0.092  0.031  0.002  0.875
  0.000  0.724  0.004  0.190  0.081
    occupations:
  0.440 -0.001  0.001 -0.011  0.030
 -0.001  0.388  0.032 -0.003 -0.002
  0.001  0.032  0.410 -0.004 -0.001
 -0.011 -0.003 -0.004  0.452  0.023
  0.030 -0.002 -0.001  0.023  0.396
atomic mag. moment =     2.891301
atom   14   Tr[ns(na)] (up, down, total) =   4.97697  2.08516  7.06213
   spin  1
    eigenvalues: 
  0.994  0.994  0.995  0.996  0.997
    eigenvectors:
  0.805  0.008  0.000  0.007  0.180
  0.002  0.031  0.294  0.630  0.043
  0.000  0.070  0.604  0.305  0.021
  0.003  0.817  0.091  0.007  0.082
  0.190  0.074  0.012  0.051  0.673
    occupations:
  0.995  0.000 -0.000  0.000 -0.001
  0.000  0.996 -0.001  0.000  0.000
 -0.000 -0.001  0.996  0.000  0.000
  0.000  0.000  0.000  0.995 -0.001
 -0.001  0.000  0.000 -0.001  0.996
   spin  2
    eigenvalues: 
  0.374  0.376  0.432  0.452  0.452
    eigenvectors:
  0.024  0.203  0.000  0.673  0.100
  0.651  0.015  0.325  0.004  0.005
  0.318  0.006  0.670  0.004  0.001
  0.001  0.084  0.004  0.039  0.873
  0.007  0.691  0.001  0.280  0.021
    occupations:
  0.435 -0.005  0.004 -0.010  0.030
 -0.005  0.393  0.027  0.002 -0.002
  0.004  0.027  0.413  0.000  0.002
 -0.010  0.002  0.000  0.446  0.019
  0.030 -0.002  0.002  0.019  0.399
atomic mag. moment =     2.891810
atom   15   Tr[ns(na)] (up, down, total) =   4.97671  2.10770  7.08441
   spin  1
    eigenvalues: 
  0.994  0.995  0.995  0.996  0.997
    eigenvectors:
  0.613  0.110  0.122  0.015  0.139
  0.080  0.001  0.151  0.767  0.001
  0.114  0.001  0.663  0.218  0.004
  0.036  0.846  0.009  0.000  0.109
  0.157  0.042  0.055  0.000  0.746
    occupations:
  0.995  0.000  0.000  0.000 -0.001
  0.000  0.996 -0.001  0.000  0.000
  0.000 -0.001  0.995  0.000  0.000
  0.000  0.000  0.000  0.995 -0.001
 -0.001  0.000  0.000 -0.001  0.996
   spin  2
    eigenvalues: 
  0.366  0.376  0.442  0.459  0.465
    eigenvectors:
  0.149  0.072  0.172  0.597  0.009
  0.134  0.457  0.320  0.051  0.037
  0.203  0.222  0.443  0.070  0.061
  0.071  0.029  0.066  0.003  0.831
  0.443  0.219  0.000  0.277  0.061
    occupations:
  0.436  0.002 -0.001 -0.012  0.034
  0.002  0.403  0.036 -0.004  0.003
 -0.001  0.036  0.414 -0.009  0.009
 -0.012 -0.004 -0.009  0.454  0.025
  0.034  0.003  0.009  0.025  0.400
atomic mag. moment =     2.869005
atom   16   Tr[ns(na)] (up, down, total) =   4.97675  2.10872  7.08547
   spin  1
    eigenvalues: 
  0.994  0.995  0.995  0.996  0.997
    eigenvectors:
  0.612  0.121  0.114  0.014  0.139
  0.051  0.004  0.411  0.531  0.004
  0.136  0.000  0.409  0.455  0.000
  0.166  0.697  0.056  0.000  0.081
  0.036  0.179  0.011  0.000  0.775
    occupations:
  0.995 -0.000 -0.000  0.000 -0.001
 -0.000  0.996 -0.001  0.000  0.000
 -0.000 -0.001  0.996  0.000 -0.000
  0.000  0.000  0.000  0.995 -0.000
 -0.001  0.000 -0.000 -0.000  0.996
   spin  2
    eigenvalues: 
  0.365  0.376  0.441  0.460  0.466
    eigenvectors:
  0.150  0.070  0.202  0.566  0.012
  0.296  0.447  0.191  0.036  0.030
  0.038  0.238  0.543  0.108  0.073
  0.045  0.025  0.034  0.162  0.734
  0.471  0.220  0.030  0.128  0.150
    occupations:
  0.436  0.001 -0.003 -0.012  0.034
  0.001  0.391  0.032 -0.000 -0.011
 -0.003  0.032  0.427 -0.001 -0.010
 -0.012 -0.000 -0.001  0.458  0.022
  0.034 -0.011 -0.010  0.022  0.397
atomic mag. moment =     2.868029
atom   17   Tr[ns(na)] (up, down, total) =   4.95352  1.45986  6.41338
   spin  1
    eigenvalues: 
  0.975  0.990  0.994  0.997  0.998
    eigenvectors:
  0.003  0.429  0.000  0.040  0.528
  0.622  0.062  0.114  0.133  0.069
  0.306  0.002  0.328  0.339  0.025
  0.007  0.105  0.393  0.485  0.010
  0.062  0.402  0.165  0.002  0.368
    occupations:
  0.994 -0.000  0.001 -0.002 -0.004
 -0.000  0.982 -0.009  0.000  0.004
  0.001 -0.009  0.989  0.002  0.002
 -0.002  0.000  0.002  0.995 -0.001
 -0.004  0.004  0.002 -0.001  0.993
   spin  2
    eigenvalues: 
  0.219  0.239  0.309  0.333  0.360
    eigenvectors:
  0.481  0.201  0.231  0.074  0.013
  0.140  0.224  0.063  0.002  0.572
  0.170  0.397  0.001  0.082  0.351
  0.002  0.120  0.523  0.355  0.000
  0.208  0.058  0.182  0.487  0.065
    occupations:
  0.254  0.005 -0.008  0.010  0.042
  0.005  0.310  0.058  0.009 -0.016
 -0.008  0.058  0.286 -0.018  0.004
  0.010  0.009 -0.018  0.309 -0.018
  0.042 -0.016  0.004 -0.018  0.301
atomic mag. moment =     3.493663
atom   18   Tr[ns(na)] (up, down, total) =   4.97935  1.24362  6.22297
   spin  1
    eigenvalues: 
  0.994  0.996  0.996  0.997  0.997
    eigenvectors:
  0.876  0.000  0.123  0.000  0.002
  0.019  0.076  0.076  0.261  0.568
  0.009  0.158  0.044  0.504  0.284
  0.011  0.682  0.077  0.213  0.017
  0.085  0.083  0.681  0.022  0.130
    occupations:
  0.994  0.000 -0.000  0.000 -0.001
  0.000  0.997 -0.000  0.000  0.000
 -0.000 -0.000  0.997  0.000 -0.000
  0.000  0.000  0.000  0.996 -0.000
 -0.001  0.000 -0.000 -0.000  0.996
   spin  2
    eigenvalues: 
  0.174  0.213  0.245  0.291  0.321
    eigenvectors:
  0.000  0.001  0.998  0.000  0.000
  0.331  0.659  0.001  0.001  0.008
  0.666  0.327  0.001  0.002  0.004
  0.003  0.001  0.000  0.886  0.110
  0.000  0.011  0.000  0.111  0.878
    occupations:
  0.245  0.001 -0.001 -0.000  0.002
  0.001  0.201 -0.019 -0.000 -0.010
 -0.001 -0.019  0.188 -0.007  0.005
 -0.000 -0.000 -0.007  0.294 -0.009
  0.002 -0.010  0.005 -0.009  0.316
atomic mag. moment =     3.735729
atom   19   Tr[ns(na)] (up, down, total) =   4.93536  1.69788  6.63324
   spin  1
    eigenvalues: 
  0.966  0.988  0.989  0.995  0.997
    eigenvectors:
  0.226  0.000  0.448  0.325  0.000
  0.510  0.174  0.054  0.105  0.158
  0.253  0.351  0.027  0.052  0.317
  0.001  0.422  0.053  0.058  0.466
  0.009  0.053  0.418  0.460  0.059
    occupations:
  0.986  0.009 -0.006 -0.000  0.001
  0.009  0.979  0.009  0.001  0.004
 -0.006  0.009  0.986  0.004 -0.001
 -0.000  0.001  0.004  0.993  0.000
  0.001  0.004 -0.001  0.000  0.992
   spin  2
    eigenvalues: 
  0.238  0.276  0.340  0.412  0.432
    eigenvectors:
  0.000  0.232  0.089  0.000  0.679
  0.208  0.217  0.253  0.113  0.210
  0.428  0.103  0.123  0.252  0.095
  0.326  0.047  0.058  0.566  0.004
  0.038  0.401  0.478  0.070  0.013
    occupations:
  0.387 -0.048  0.034  0.011 -0.028
 -0.048  0.332 -0.021 -0.041 -0.029
  0.034 -0.021  0.317 -0.068 -0.013
  0.011 -0.041 -0.068  0.345  0.011
 -0.028 -0.029 -0.013  0.011  0.316
atomic mag. moment =     3.237484
atom   20   Tr[ns(na)] (up, down, total) =   4.95346  1.45995  6.41341
   spin  1
    eigenvalues: 
  0.975  0.990  0.994  0.997  0.998
    eigenvectors:
  0.003  0.427  0.000  0.044  0.526
  0.067  0.002  0.427  0.445  0.059
  0.862  0.062  0.016  0.022  0.038
  0.048  0.426  0.053  0.268  0.204
  0.020  0.084  0.503  0.221  0.172
    occupations:
  0.994 -0.001  0.000  0.003 -0.002
 -0.001  0.994 -0.005  0.002  0.000
  0.000 -0.005  0.977  0.003 -0.003
  0.003  0.002  0.003  0.993  0.001
 -0.002  0.000 -0.003  0.001  0.995
   spin  2
    eigenvalues: 
  0.218  0.240  0.308  0.334  0.360
    eigenvectors:
  0.480  0.201  0.236  0.070  0.013
  0.264  0.564  0.011  0.067  0.094
  0.046  0.058  0.050  0.020  0.826
  0.104  0.176  0.691  0.002  0.027
  0.106  0.001  0.011  0.842  0.040
    occupations:
  0.254  0.009 -0.002 -0.034  0.027
  0.009  0.252  0.038 -0.010 -0.020
 -0.002  0.038  0.343 -0.007  0.013
 -0.034 -0.010 -0.007  0.288  0.008
  0.027 -0.020  0.013  0.008  0.323
atomic mag. moment =     3.493509
N of occupied +U levels = 135.1619872
 --- exit write_ns ---

     negative rho (up, down):  0.000E+00 0.324E-03
 --- in v_hubbard ---
Hubbard energy    0.0000
 -------

     total cpu time spent up to now is      122.4 secs

     total energy              =   -6681.50360459 Ry
     Harris-Foulkes estimate   =   -6671.64668552 Ry
     estimated scf accuracy    <      29.74664706 Ry

     total magnetization       =    68.03 Bohr mag/cell
     absolute magnetization    =    71.76 Bohr mag/cell

     iteration #  2     ecut=    95.00 Ry     beta=0.50
     Davidson diagonalization with overlap
     ethr =  8.85E-03,  avg # of iterations =  1.0
 --- enter write_ns ---
 LDA+U parameters:
U( 1)     =  0.00000000
alpha( 1) =  0.00000000
atom    1   Tr[ns(na)] (up, down, total) =   4.97631  1.91594  6.89225
   spin  1
    eigenvalues: 
  0.993  0.995  0.995  0.996  0.997
    eigenvectors:
  0.894  0.105  0.001  0.000  0.000
  0.000  0.000  0.396  0.006  0.597
  0.000  0.000  0.584  0.012  0.403
  0.009  0.061  0.018  0.912  0.000
  0.097  0.833  0.001  0.069  0.000
    occupations:
  0.993  0.000  0.000  0.000 -0.001
  0.000  0.996 -0.001  0.000  0.000
  0.000 -0.001  0.996  0.000  0.000
  0.000  0.000  0.000  0.996  0.000
 -0.001  0.000  0.000  0.000  0.995
   spin  2
    eigenvalues: 
  0.305  0.324  0.347  0.452  0.489
    eigenvectors:
  0.000  0.000  0.712  0.288  0.000
  0.645  0.355  0.000  0.000  0.000
  0.355  0.645  0.000  0.000  0.000
  0.000  0.000  0.032  0.078  0.890
  0.000  0.000  0.256  0.634  0.110
    occupations:
  0.377 -0.000  0.000 -0.016  0.045
 -0.000  0.311  0.009 -0.000 -0.000
  0.000  0.009  0.317  0.000  0.000
 -0.016 -0.000  0.000  0.481  0.021
  0.045 -0.000  0.000  0.021  0.429
atomic mag. moment =     3.060365
atom    2   Tr[ns(na)] (up, down, total) =   4.97607  1.92129  6.89737
   spin  1
    eigenvalues: 
  0.993  0.995  0.995  0.996  0.997
    eigenvectors:
  0.886  0.114  0.000  0.000  0.000
  0.000  0.000  0.350  0.025  0.624
  0.000  0.000  0.584  0.040  0.375
  0.013  0.093  0.056  0.838  0.000
  0.102  0.793  0.009  0.097  0.000
    occupations:
  0.993  0.000 -0.000  0.000 -0.001
  0.000  0.996 -0.001 -0.000 -0.000
 -0.000 -0.001  0.996 -0.000  0.000
  0.000 -0.000 -0.000  0.995  0.000
 -0.001 -0.000  0.000  0.000  0.995
   spin  2
    eigenvalues: 
  0.305  0.325  0.347  0.454  0.490
    eigenvectors:
  0.000  0.000  0.707  0.293  0.000
  0.658  0.342  0.000  0.000  0.000
  0.342  0.658  0.000  0.000  0.000
  0.000  0.000  0.034  0.075  0.892
  0.000  0.000  0.260  0.632  0.108
    occupations:
  0.379  0.000  0.000 -0.017  0.046
  0.000  0.312  0.009 -0.000  0.000
  0.000  0.009  0.318 -0.000  0.000
 -0.017 -0.000 -0.000  0.483  0.021
  0.046  0.000  0.000  0.021  0.430
atomic mag. moment =     3.054780
atom    3   Tr[ns(na)] (up, down, total) =   4.97612  1.91280  6.88892
   spin  1
    eigenvalues: 
  0.993  0.995  0.996  0.996  0.997
    eigenvectors:
  0.912  0.087  0.000  0.000  0.000
  0.000  0.000  0.363  0.004  0.632
  0.000  0.000  0.626  0.006  0.367
  0.010  0.103  0.010  0.877  0.000
  0.078  0.810  0.000  0.112  0.000
    occupations:
  0.993 -0.000  0.000  0.000 -0.001
 -0.000  0.996 -0.001  0.000 -0.000
  0.000 -0.001  0.996 -0.000  0.000
  0.000  0.000 -0.000  0.996  0.000
 -0.001 -0.000  0.000  0.000  0.995
   spin  2
    eigenvalues: 
  0.303  0.323  0.346  0.452  0.488
    eigenvectors:
  0.000  0.000  0.712  0.288  0.000
  0.660  0.340  0.000  0.000  0.000
  0.340  0.660  0.000  0.000  0.000
  0.000  0.000  0.033  0.074  0.894
  0.000  0.000  0.255  0.639  0.106
    occupations:
  0.377  0.000 -0.000 -0.016  0.045
  0.000  0.310  0.009  0.000 -0.000
 -0.000  0.009  0.316 -0.000  0.000
 -0.016  0.000 -0.000  0.481  0.021
  0.045 -0.000  0.000  0.021  0.429
atomic mag. moment =     3.063320
atom    4   Tr[ns(na)] (up, down, total) =   4.97634  1.91868  6.89502
   spin  1
    eigenvalues: 
  0.993  0.995  0.995  0.996  0.997
    eigenvectors:
  0.895  0.103  0.001  0.001  0.000
  0.000  0.000  0.326  0.003  0.671
  0.001  0.000  0.666  0.004  0.329
  0.014  0.167  0.006  0.813  0.000
  0.089  0.730  0.002  0.179  0.000
    occupations:
  0.993 -0.000 -0.000  0.000 -0.001
 -0.000  0.996 -0.001 -0.000  0.000
 -0.000 -0.001  0.996  0.000 -0.000
  0.000 -0.000  0.000  0.996  0.000
 -0.001  0.000 -0.000  0.000  0.995
   spin  2
    eigenvalues: 
  0.305  0.324  0.347  0.453  0.490
    eigenvectors:
  0.000  0.000  0.710  0.290  0.000
  0.673  0.327  0.000  0.000  0.000
  0.327  0.673  0.000  0.000  0.000
  0.000  0.000  0.033  0.078  0.889
  0.000  0.000  0.258  0.631  0.111
    occupations:
  0.378 -0.000  0.000 -0.016  0.045
 -0.000  0.311  0.009  0.000  0.000
  0.000  0.009  0.318  0.000  0.000
 -0.016  0.000  0.000  0.482  0.021
  0.045  0.000  0.000  0.021  0.430
atomic mag. moment =     3.057660
atom    5   Tr[ns(na)] (up, down, total) =   4.95457  2.04436  6.99893
   spin  1
    eigenvalues: 
  0.988  0.991  0.991  0.991  0.992
    eigenvectors:
  0.981  0.000  0.003  0.016  0.001
  0.000  0.328  0.001  0.050  0.621
  0.000  0.631  0.040  0.000  0.328
  0.009  0.036  0.184  0.763  0.009
  0.011  0.005  0.772  0.171  0.041
    occupations:
  0.988  0.000 -0.000  0.000 -0.000
  0.000  0.992 -0.001  0.000 -0.000
 -0.000 -0.001  0.991 -0.000  0.000
  0.000  0.000 -0.000  0.991 -0.000
 -0.000 -0.000  0.000 -0.000  0.991
   spin  2
    eigenvalues: 
  0.356  0.358  0.433  0.434  0.463
    eigenvectors:
  0.002  0.312  0.018  0.668  0.000
  0.664  0.003  0.000  0.000  0.333
  0.331  0.002  0.000  0.000  0.667
  0.000  0.077  0.808  0.115  0.000
  0.003  0.607  0.173  0.217  0.000
    occupations:
  0.410  0.000 -0.000 -0.012  0.033
  0.000  0.392  0.050 -0.000 -0.000
 -0.000  0.050  0.428 -0.000 -0.000
 -0.012 -0.000 -0.000  0.427  0.016
  0.033 -0.000 -0.000  0.016  0.387
atomic mag. moment =     2.910211
atom    6   Tr[ns(na)] (up, down, total) =   4.95542  2.04354  6.99895
   spin  1
    eigenvalues: 
  0.989  0.991  0.991  0.992  0.992
    eigenvectors:
  0.981  0.000  0.007  0.009  0.004
  0.004  0.325  0.021  0.003  0.647
  0.002  0.653  0.000  0.012  0.334
  0.009  0.014  0.000  0.977  0.001
  0.005  0.008  0.972  0.000  0.014
    occupations:
  0.989  0.000 -0.000  0.000 -0.000
  0.000  0.992 -0.001 -0.000  0.000
 -0.000 -0.001  0.992 -0.000 -0.000
  0.000 -0.000 -0.000  0.991  0.000
 -0.000  0.000 -0.000  0.000  0.991
   spin  2
    eigenvalues: 
  0.356  0.358  0.433  0.433  0.463
    eigenvectors:
  0.001  0.317  0.004  0.677  0.000
  0.663  0.003  0.000  0.000  0.333
  0.332  0.001  0.000  0.000  0.667
  0.000  0.075  0.911  0.013  0.000
  0.003  0.603  0.085  0.310  0.000
    occupations:
  0.409  0.000  0.000 -0.012  0.033
  0.000  0.392  0.050 -0.000  0.000
  0.000  0.050  0.427  0.000 -0.000
 -0.012 -0.000  0.000  0.427  0.016
  0.033  0.000 -0.000  0.016  0.388
atomic mag. moment =     2.911880
atom    7   Tr[ns(na)] (up, down, total) =   4.95514  2.04664  7.00178
   spin  1
    eigenvalues: 
  0.989  0.991  0.991  0.992  0.992
    eigenvectors:
  0.993  0.001  0.005  0.000  0.001
  0.001  0.301  0.035  0.000  0.663
  0.000  0.683  0.000  0.008  0.309
  0.005  0.004  0.839  0.125  0.026
  0.000  0.011  0.121  0.867  0.000
    occupations:
  0.989 -0.000  0.000  0.000  0.000
 -0.000  0.992 -0.001 -0.000  0.000
  0.000 -0.001  0.991  0.000  0.000
  0.000 -0.000  0.000  0.991 -0.000
  0.000  0.000  0.000 -0.000  0.992
   spin  2
    eigenvalues: 
  0.357  0.358  0.433  0.435  0.464
    eigenvectors:
  0.000  0.316  0.001  0.682  0.000
  0.666  0.000  0.000  0.000  0.334
  0.334  0.000  0.000  0.000  0.666
  0.000  0.075  0.903  0.021  0.000
  0.000  0.608  0.095  0.296  0.000
    occupations:
  0.410  0.000  0.000 -0.012  0.034
  0.000  0.393  0.050 -0.000  0.000
  0.000  0.050  0.428  0.000  0.000
 -0.012 -0.000  0.000  0.428  0.016
  0.034  0.000  0.000  0.016  0.388
atomic mag. moment =     2.908501
atom    8   Tr[ns(na)] (up, down, total) =   4.95514  2.04718  7.00232
   spin  1
    eigenvalues: 
  0.989  0.991  0.991  0.992  0.993
    eigenvectors:
  0.995  0.000  0.004  0.000  0.001
  0.000  0.349  0.005  0.003  0.643
  0.001  0.637  0.030  0.001  0.331
  0.003  0.014  0.699  0.268  0.016
  0.000  0.000  0.262  0.727  0.010
    occupations:
  0.989 -0.000  0.000  0.000  0.000
 -0.000  0.992 -0.001  0.000  0.000
  0.000 -0.001  0.991 -0.000 -0.000
  0.000  0.000 -0.000  0.991 -0.000
  0.000  0.000 -0.000 -0.000  0.992
   spin  2
    eigenvalues: 
  0.357  0.358  0.433  0.435  0.464
    eigenvectors:
  0.001  0.315  0.004  0.680  0.000
  0.665  0.002  0.000  0.000  0.333
  0.332  0.001  0.000  0.000  0.666
  0.000  0.077  0.855  0.068  0.000
  0.002  0.605  0.141  0.252  0.000
    occupations:
  0.410 -0.000 -0.000 -0.012  0.033
 -0.000  0.393  0.050  0.000 -0.000
 -0.000  0.050  0.428  0.000 -0.000
 -0.012  0.000  0.000  0.428  0.016
  0.033 -0.000 -0.000  0.016  0.388
atomic mag. moment =     2.907958
atom    9   Tr[ns(na)] (up, down, total) =   4.95532  2.04225  6.99756
   spin  1
    eigenvalues: 
  0.989  0.991  0.991  0.992  0.992
    eigenvectors:
  0.039  0.208  0.708  0.023  0.023
  0.503  0.037  0.024  0.420  0.016
  0.449  0.003  0.000  0.542  0.006
  0.002  0.073  0.114  0.014  0.797
  0.008  0.679  0.154  0.000  0.159
    occupations:
  0.991 -0.000 -0.000 -0.000 -0.000
 -0.000  0.990 -0.001  0.000  0.000
 -0.000 -0.001  0.991  0.000 -0.000
 -0.000  0.000  0.000  0.992  0.001
 -0.000  0.000 -0.000  0.001  0.991
   spin  2
    eigenvalues: 
  0.369  0.371  0.428  0.435  0.439
    eigenvectors:
  0.007  0.229  0.001  0.013  0.750
  0.642  0.021  0.326  0.011  0.000
  0.334  0.004  0.644  0.018  0.000
  0.002  0.075  0.028  0.815  0.080
  0.015  0.670  0.001  0.143  0.170
    occupations:
  0.423  0.000 -0.001 -0.010  0.027
  0.000  0.389  0.028  0.001  0.001
 -0.001  0.028  0.408  0.000  0.002
 -0.010  0.001  0.000  0.430  0.014
  0.027  0.001  0.002  0.014  0.392
atomic mag. moment =     2.913071
atom   10   Tr[ns(na)] (up, down, total) =   4.95621  2.04891  7.00511
   spin  1
    eigenvalues: 
  0.989  0.991  0.992  0.992  0.992
    eigenvectors:
  0.000  0.665  0.330  0.000  0.005
  0.341  0.000  0.011  0.000  0.648
  0.658  0.000  0.006  0.001  0.335
  0.000  0.040  0.059  0.900  0.001
  0.000  0.295  0.594  0.099  0.012
    occupations:
  0.991 -0.000  0.000  0.000 -0.000
 -0.000  0.991 -0.001  0.000  0.000
  0.000 -0.001  0.990  0.000 -0.000
  0.000  0.000  0.000  0.992  0.000
 -0.000  0.000 -0.000  0.000  0.991
   spin  2
    eigenvalues: 
  0.367  0.373  0.432  0.435  0.442
    eigenvectors:
  0.002  0.234  0.000  0.000  0.763
  0.662  0.005  0.278  0.054  0.000
  0.330  0.002  0.557  0.110  0.001
  0.001  0.084  0.148  0.737  0.030
  0.005  0.674  0.016  0.099  0.206
    occupations:
  0.425 -0.000  0.000 -0.010  0.027
 -0.000  0.389  0.031  0.000  0.000
  0.000  0.031  0.411  0.001 -0.000
 -0.010  0.000  0.001  0.429  0.014
  0.027  0.000 -0.000  0.014  0.394
atomic mag. moment =     2.907299
atom   11   Tr[ns(na)] (up, down, total) =   4.95646  2.05292  7.00938
   spin  1
    eigenvalues: 
  0.990  0.990  0.991  0.992  0.993
    eigenvectors:
  0.000  0.216  0.784  0.001  0.000
  0.331  0.000  0.001  0.666  0.002
  0.664  0.000  0.001  0.333  0.002
  0.004  0.086  0.023  0.000  0.887
  0.000  0.697  0.192  0.001  0.109
    occupations:
  0.991  0.000 -0.000  0.000 -0.000
  0.000  0.991 -0.001 -0.000 -0.000
 -0.000 -0.001  0.991 -0.000 -0.000
  0.000 -0.000 -0.000  0.992  0.001
 -0.000 -0.000 -0.000  0.001  0.991
   spin  2
    eigenvalues: 
  0.367  0.372  0.435  0.437  0.442
    eigenvectors:
  0.001  0.244  0.000  0.002  0.753
  0.664  0.002  0.056  0.278  0.001
  0.334  0.001  0.111  0.553  0.002
  0.000  0.084  0.741  0.155  0.020
  0.001  0.670  0.092  0.012  0.225
    occupations:
  0.425  0.000 -0.000 -0.010  0.028
  0.000  0.390  0.033 -0.000 -0.000
 -0.000  0.033  0.413 -0.001 -0.000
 -0.010 -0.000 -0.001  0.430  0.014
  0.028 -0.000 -0.000  0.014  0.395
atomic mag. moment =     2.903543
atom   12   Tr[ns(na)] (up, down, total) =   4.95528  2.04166  6.99694
   spin  1
    eigenvalues: 
  0.989  0.991  0.991  0.992  0.992
    eigenvectors:
  0.039  0.225  0.684  0.026  0.026
  0.150  0.000  0.004  0.838  0.008
  0.800  0.044  0.021  0.128  0.007
  0.000  0.096  0.000  0.007  0.897
  0.011  0.636  0.290  0.002  0.061
    occupations:
  0.991  0.000  0.000  0.000 -0.000
  0.000  0.991 -0.001 -0.000  0.000
  0.000 -0.001  0.990  0.000  0.000
  0.000 -0.000  0.000  0.992  0.000
 -0.000  0.000  0.000  0.000  0.991
   spin  2
    eigenvalues: 
  0.369  0.371  0.428  0.435  0.439
    eigenvectors:
  0.012  0.224  0.001  0.011  0.752
  0.649  0.024  0.320  0.006  0.000
  0.305  0.023  0.658  0.015  0.000
  0.004  0.089  0.016  0.888  0.003
  0.030  0.640  0.005  0.080  0.245
    occupations:
  0.423  0.001  0.000 -0.010  0.027
  0.001  0.388  0.028  0.001 -0.001
  0.000  0.028  0.409  0.001 -0.001
 -0.010  0.001  0.001  0.429  0.016
  0.027 -0.001 -0.001  0.016  0.393
atomic mag. moment =     2.913620
atom   13   Tr[ns(na)] (up, down, total) =   4.95610  2.01411  6.97022
   spin  1
    eigenvalues: 
  0.990  0.990  0.990  0.993  0.994
    eigenvectors:
  0.000  0.179  0.000  0.674  0.146
  0.218  0.002  0.116  0.101  0.562
  0.428  0.005  0.237  0.048  0.283
  0.304  0.097  0.581  0.017  0.001
  0.050  0.717  0.066  0.159  0.008
    occupations:
  0.992 -0.000  0.000  0.000 -0.001
 -0.000  0.992 -0.002 -0.000 -0.000
  0.000 -0.002  0.991 -0.000 -0.000
  0.000 -0.000 -0.000  0.990 -0.000
 -0.001 -0.000 -0.000 -0.000  0.990
   spin  2
    eigenvalues: 
  0.354  0.358  0.425  0.437  0.441
    eigenvectors:
  0.006  0.227  0.000  0.767  0.000
  0.622  0.044  0.074  0.003  0.258
  0.310  0.022  0.152  0.000  0.516
  0.007  0.080  0.681  0.031  0.202
  0.056  0.628  0.092  0.199  0.025
    occupations:
  0.418 -0.003  0.002 -0.011  0.031
 -0.003  0.382  0.039 -0.003 -0.004
  0.002  0.039  0.410 -0.006 -0.000
 -0.011 -0.003 -0.006  0.423  0.017
  0.031 -0.004 -0.000  0.017  0.382
atomic mag. moment =     2.941990
atom   14   Tr[ns(na)] (up, down, total) =   4.95072  2.00638  6.95711
   spin  1
    eigenvalues: 
  0.987  0.989  0.990  0.992  0.993
    eigenvectors:
  0.000  0.309  0.000  0.473  0.217
  0.333  0.035  0.001  0.111  0.520
  0.663  0.020  0.002  0.056  0.259
  0.003  0.066  0.895  0.035  0.000
  0.000  0.569  0.101  0.325  0.004
    occupations:
  0.991  0.001 -0.000  0.000 -0.001
  0.001  0.991 -0.003 -0.000  0.000
 -0.000 -0.003  0.989 -0.000 -0.000
  0.000 -0.000 -0.000  0.990 -0.000
 -0.001  0.000 -0.000 -0.000  0.990
   spin  2
    eigenvalues: 
  0.364  0.365  0.420  0.425  0.432
    eigenvectors:
  0.225  0.135  0.640  0.000  0.000
  0.188  0.476  0.004  0.068  0.264
  0.093  0.238  0.002  0.143  0.525
  0.055  0.016  0.031  0.708  0.190
  0.440  0.135  0.323  0.081  0.021
    occupations:
  0.400 -0.002  0.002 -0.009  0.025
 -0.002  0.387  0.031  0.003 -0.002
  0.002  0.031  0.409  0.002  0.002
 -0.009  0.003  0.002  0.422  0.013
  0.025 -0.002  0.002  0.013  0.389
atomic mag. moment =     2.944339
atom   15   Tr[ns(na)] (up, down, total) =   4.95361  2.04401  6.99762
   spin  1
    eigenvalues: 
  0.990  0.990  0.990  0.991  0.993
    eigenvectors:
  0.881  0.064  0.036  0.011  0.009
  0.005  0.115  0.295  0.036  0.549
  0.034  0.089  0.637  0.006  0.235
  0.044  0.709  0.020  0.063  0.164
  0.036  0.023  0.013  0.884  0.043
    occupations:
  0.990  0.000 -0.000 -0.000 -0.000
  0.000  0.992 -0.001 -0.001 -0.000
 -0.000 -0.001  0.991  0.001  0.000
 -0.000 -0.001  0.001  0.990 -0.000
 -0.000 -0.000  0.000 -0.000  0.991
   spin  2
    eigenvalues: 
  0.351  0.365  0.425  0.439  0.465
    eigenvectors:
  0.143  0.145  0.389  0.192  0.131
  0.191  0.363  0.143  0.004  0.300
  0.238  0.214  0.132  0.001  0.415
  0.064  0.039  0.318  0.469  0.109
  0.364  0.239  0.018  0.334  0.045
    occupations:
  0.414  0.006  0.006 -0.012  0.035
  0.006  0.401  0.047 -0.007  0.002
  0.006  0.047  0.411 -0.012  0.013
 -0.012 -0.007 -0.012  0.429  0.020
  0.035  0.002  0.013  0.020  0.390
atomic mag. moment =     2.909605
atom   16   Tr[ns(na)] (up, down, total) =   4.95365  2.04345  6.99710
   spin  1
    eigenvalues: 
  0.990  0.990  0.990  0.991  0.993
    eigenvectors:
  0.930  0.018  0.032  0.013  0.006
  0.011  0.189  0.306  0.000  0.494
  0.020  0.028  0.615  0.045  0.292
  0.032  0.617  0.005  0.146  0.199
  0.007  0.148  0.043  0.794  0.008
    occupations:
  0.990  0.000 -0.000  0.000 -0.000
  0.000  0.991 -0.001  0.001  0.000
 -0.000 -0.001  0.991 -0.001 -0.000
  0.000  0.001 -0.001  0.991 -0.000
 -0.000  0.000 -0.000 -0.000  0.991
   spin  2
    eigenvalues: 
  0.351  0.364  0.425  0.439  0.465
    eigenvectors:
  0.143  0.143  0.398  0.181  0.135
  0.366  0.405  0.048  0.000  0.180
  0.063  0.172  0.230  0.004  0.531
  0.033  0.023  0.114  0.815  0.014
  0.395  0.256  0.209  0.000  0.140
    occupations:
  0.413 -0.004 -0.008 -0.012  0.035
 -0.004  0.380  0.040  0.000 -0.015
 -0.008  0.040  0.431 -0.004 -0.012
 -0.012  0.000 -0.004  0.433  0.015
  0.035 -0.015 -0.012  0.015  0.386
atomic mag. moment =     2.910201
atom   17   Tr[ns(na)] (up, down, total) =   4.93483  1.93859  6.87342
   spin  1
    eigenvalues: 
  0.963  0.988  0.992  0.995  0.996
    eigenvectors:
  0.007  0.335  0.029  0.176  0.452
  0.551  0.114  0.000  0.146  0.189
  0.266  0.025  0.040  0.554  0.115
  0.010  0.170  0.771  0.049  0.000
  0.167  0.355  0.160  0.075  0.243
    occupations:
  0.993  0.000  0.001 -0.002 -0.004
  0.000  0.977 -0.013  0.001  0.008
  0.001 -0.013  0.986  0.002  0.006
 -0.002  0.001  0.002  0.991 -0.002
 -0.004  0.008  0.006 -0.002  0.987
   spin  2
    eigenvalues: 
  0.284  0.315  0.412  0.447  0.481
    eigenvectors:
  0.112  0.395  0.162  0.064  0.267
  0.348  0.022  0.498  0.093  0.039
  0.362  0.262  0.320  0.002  0.053
  0.025  0.028  0.001  0.664  0.282
  0.153  0.293  0.018  0.177  0.359
    occupations:
  0.380  0.007 -0.002  0.015  0.075
  0.007  0.371  0.056  0.016 -0.035
 -0.002  0.056  0.344 -0.030 -0.006
  0.015  0.016 -0.030  0.449  0.009
  0.075 -0.035 -0.006  0.009  0.395
atomic mag. moment =     2.996243
atom   18   Tr[ns(na)] (up, down, total) =   4.97841  1.87175  6.85017
   spin  1
    eigenvalues: 
  0.994  0.995  0.996  0.996  0.997
    eigenvectors:
  0.982  0.000  0.012  0.000  0.006
  0.008  0.002  0.074  0.349  0.567
  0.004  0.004  0.066  0.642  0.283
  0.001  0.882  0.092  0.009  0.016
  0.005  0.111  0.756  0.000  0.128
    occupations:
[...]
     0.1162   0.0692   0.0604   0.0323   0.0225   0.0112   0.0097   0.0094
     0.0093   0.0087   0.0057   0.0021   0.0020   0.0017   0.0015   0.0011
     0.0003   0.0003   0.0001   0.0001   0.0000   0.0000   0.0000   0.0000
     0.0000   0.0000   0.0000   0.0000   0.0000   0.0000   0.0000   0.0000
     0.0000   0.0000   0.0000   0.0000   0.0000   0.0000   0.0000   0.0000
     0.0000   0.0000   0.0000   0.0000   0.0000   0.0000   0.0000   0.0000
     0.0000   0.0000

     the Fermi energy is     6.9281 ev

!    total energy              =   -6686.76723886 Ry
     Harris-Foulkes estimate   =   -6686.76723886 Ry
     estimated scf accuracy    <          4.9E-09 Ry

     total all-electron energy =    -51288.155835 Ry

     The total energy is the sum of the following terms:

     one-electron contribution =  -29064.69416884 Ry
     hartree contribution      =   14619.96676471 Ry
     xc contribution           =    -715.10396355 Ry
     ewald contribution        =   10021.68632007 Ry
     Hubbard energy            =       0.00000000 Ry
     one-center paw contrib.   =   -1548.74686643 Ry
     smearing contrib. (-TS)   =       0.12467518 Ry

     total magnetization       =    45.02 Bohr mag/cell
     absolute magnetization    =    47.23 Bohr mag/cell

     convergence has been achieved in  32 iterations

     Forces acting on atoms (Ry/au):


     negative rho (up, down):  0.527E-04 0.484E-03
     atom    1 type  1   force =     0.00002149    0.00011332    0.00276659
     atom    2 type  1   force =    -0.00000253    0.00000204    0.00157800
     atom    3 type  1   force =     0.00003039   -0.00002141    0.00175554
     atom    4 type  1   force =    -0.00010158   -0.00005801    0.00276654
     atom    5 type  1   force =     0.00007056   -0.00004047   -0.00046907
     atom    6 type  1   force =     0.00007364   -0.00005231    0.00173924
     atom    7 type  1   force =    -0.00009544    0.00013613    0.00139273
     atom    8 type  1   force =    -0.00016191    0.00005078    0.00139350
     atom    9 type  1   force =    -0.00103663   -0.00144928   -0.00486027
     atom   10 type  1   force =     0.00019853   -0.00020322   -0.00275626
     atom   11 type  1   force =    -0.00002413   -0.00003024   -0.00050726
     atom   12 type  1   force =     0.00097408    0.00138655   -0.00484026
     atom   13 type  1   force =     0.00005143    0.00007130   -0.00002302
     atom   14 type  1   force =    -0.00005086    0.00002015   -0.00005575
     atom   15 type  1   force =     0.00005104    0.00003465   -0.00002063
     atom   16 type  1   force =    -0.00007624    0.00005995   -0.00007172
     atom   17 type  1   force =     0.00001221   -0.00002594    0.00009582
     atom   18 type  1   force =     0.00001862    0.00001906    0.00003412
     atom   19 type  1   force =     0.00002670    0.00003658    0.00009017
     atom   20 type  1   force =    -0.00001989   -0.00002983   -0.00000317
     atom   21 type  2   force =    -0.00000116   -0.00001168   -0.00000331
     atom   22 type  3   force =    -0.00000943    0.00002605   -0.00001792
     atom   23 type  3   force =     0.00005110   -0.00003417    0.00001638
     The non-local contrib.  to forces
     atom    1 type  1   force =    -0.00043401   -0.00002913   -0.20106264
     atom    2 type  1   force =    -0.00006997    0.00004931   -0.19982991
     atom    3 type  1   force =     0.00039505   -0.00027562   -0.20115186
     atom    4 type  1   force =    -0.00011366    0.00042134   -0.20106522
     atom    5 type  1   force =     0.00035028   -0.00023741   -0.03157586
     atom    6 type  1   force =    -0.00046383    0.00033767   -0.03262581
     atom    7 type  1   force =     0.00022273    0.00065352   -0.02947311
     atom    8 type  1   force =    -0.00052479   -0.00041223   -0.02947258
     atom    9 type  1   force =    -0.00073533   -0.00015239    0.00227841
     atom   10 type  1   force =     0.00018545   -0.00007419   -0.00019433
     atom   11 type  1   force =     0.00018764   -0.00009625    0.00175634
     atom   12 type  1   force =    -0.00005730    0.00079704    0.00227944
     atom   13 type  1   force =     0.00315591   -0.00230863    0.06452956
     atom   14 type  1   force =     0.00622836   -0.00438949    0.00452502
     atom   15 type  1   force =    -0.01578614   -0.01877590    0.03839119
     atom   16 type  1   force =     0.01244252    0.02108567    0.03839304
     atom   17 type  1   force =     0.00148005   -0.00389272    0.13147879
     atom   18 type  1   force =     0.06656013   -0.04713278    0.30742278
     atom   19 type  1   force =     0.03126010   -0.02211394    0.13194222
     atom   20 type  1   force =     0.00420189   -0.00002859    0.13149575
     atom   21 type  2   force =     0.20168503   -0.14258054    0.33259816
     atom   22 type  3   force =    -0.44569353    0.31530041   -2.44978927
     atom   23 type  3   force =     0.08371780   -0.05905953   -1.45036247
     The ionic contribution  to forces
     atom    1 type  1   force =    -0.00014027   -0.00026865 -324.60702167
     atom    2 type  1   force =    -0.00006322    0.00019716 -324.60701263
     atom    3 type  1   force =     0.00019605   -0.00022598 -324.60794661
     atom    4 type  1   force =    -0.00000097    0.00029637 -324.60657191
     atom    5 type  1   force =    -0.00161794    0.00218487 -172.04109993
     atom    6 type  1   force =     0.00339689   -0.00337412 -172.03212159
     atom    7 type  1   force =    -0.00338430   -0.00380603 -172.05417626
     atom    8 type  1   force =     0.00148482    0.00514622 -172.05390224
     atom    9 type  1   force =    -0.01207966   -0.06406524  -17.17795968
     atom   10 type  1   force =    -0.04343060    0.02584313  -17.34085755
     atom   11 type  1   force =     0.00119275   -0.00176854  -17.47901073
     atom   12 type  1   force =     0.05501448    0.02800200  -17.17355483
     atom   13 type  1   force =     0.16311582   -0.09932268  138.53603969
     atom   14 type  1   force =    -0.02628554    0.00867105  138.44058437
     atom   15 type  1   force =     0.36228655    0.58107478  137.58609738
     atom   16 type  1   force =    -0.43848189   -0.52402804  137.59249344
     atom   17 type  1   force =    -2.16084565   -1.40422803  291.44315868
     atom   18 type  1   force =     0.94248324   -0.66296523  294.16059916
     atom   19 type  1   force =     0.47266668   -0.33270198  288.86800151
     atom   20 type  1   force =     0.60316072    2.50158249  291.44977362
     atom   21 type  2   force =    -0.13984661    0.10123871   81.84721185
     atom   22 type  3   force =     1.94356397   -1.37394336  118.33786228
     atom   23 type  3   force =    -1.72238531    1.21646111  137.51941364
     The local contribution  to forces
     atom    1 type  1   force =     0.00060163    0.00044723  324.81951715
     atom    2 type  1   force =     0.00013264   -0.00024571  324.81702079
     atom    3 type  1   force =    -0.00053871    0.00046539  324.81949508
     atom    4 type  1   force =    -0.00001886   -0.00079259  324.81906860
     atom    5 type  1   force =     0.00132229   -0.00197650  172.07359249
     atom    6 type  1   force =    -0.00289317    0.00300687  172.06812311
     atom    7 type  1   force =     0.00310588    0.00335465  172.08663540
     atom    8 type  1   force =    -0.00117217   -0.00474305  172.08636066
     atom    9 type  1   force =     0.01180859    0.06275592   17.17063648
     atom   10 type  1   force =     0.04341275   -0.02594281   17.33830909
     atom   11 type  1   force =    -0.00134224    0.00179621   17.47671288
     atom   12 type  1   force =    -0.05395468   -0.02742906   17.16625105
     atom   13 type  1   force =    -0.16570681    0.10132947 -138.60324040
     atom   14 type  1   force =     0.01957744   -0.00395662 -138.44696906
     atom   15 type  1   force =    -0.34709086   -0.56310441 -137.62717625
     atom   16 type  1   force =     0.42654453    0.50387685 -137.63361988
     atom   17 type  1   force =     2.15370377    1.40201991 -291.58554404
     atom   18 type  1   force =    -1.01141516    0.71180226 -294.47794884
     atom   19 type  1   force =    -0.49500809    0.34856024 -288.99855746
     atom   20 type  1   force =    -0.60353870   -2.49420190 -291.59226685
     atom   21 type  2   force =    -0.05898388    0.03931319  -82.18547933
     atom   22 type  3   force =    -1.50129333    1.06108414 -115.90679700
     atom   23 type  3   force =     1.63958270   -1.15804564 -136.08396310
     The core correction contribution to forces
     atom    1 type  1   force =    -0.00000556   -0.00003814   -0.00882355
     atom    2 type  1   force =    -0.00000187    0.00000098   -0.00877295
     atom    3 type  1   force =    -0.00001931    0.00001323   -0.00881243
     atom    4 type  1   force =     0.00003404    0.00001709   -0.00882286
     atom    5 type  1   force =     0.00001716   -0.00001140   -0.00150815
     atom    6 type  1   force =     0.00003514   -0.00002462   -0.00176074
     atom    7 type  1   force =    -0.00003823   -0.00006782   -0.00171988
     atom    8 type  1   force =     0.00005174    0.00005958   -0.00171901
     atom    9 type  1   force =    -0.00002681    0.00001431    0.00008530
     atom   10 type  1   force =     0.00003328   -0.00003098   -0.00007551
     atom   11 type  1   force =    -0.00006186    0.00003812   -0.00002619
     atom   12 type  1   force =    -0.00002898    0.00001256    0.00008485
     atom   13 type  1   force =    -0.00050502    0.00036649    0.00263160
     atom   14 type  1   force =     0.00042226   -0.00029925    0.00178459
     atom   15 type  1   force =     0.00065089    0.00085256    0.00263603
     atom   16 type  1   force =    -0.00058961   -0.00088780    0.00263087
     atom   17 type  1   force =     0.00567720    0.00608297    0.01112119
     atom   18 type  1   force =     0.00240267   -0.00169339    0.01005269
     atom   19 type  1   force =    -0.00889575    0.00629453   -0.00121181
     atom   20 type  1   force =    -0.00385078   -0.00738767    0.01111319
     atom   21 type  2   force =    -0.00285338    0.00201540    0.00567398
     atom   22 type  3   force =     0.00341183   -0.00241397    0.01871003
     atom   23 type  3   force =    -0.00086303    0.00060886    0.01494544
     The Hubbard contrib.    to forces
     atom    1 type  1   force =     0.00000000    0.00000000   -0.00000000
     atom    2 type  1   force =    -0.00000000    0.00000000   -0.00000000
     atom    3 type  1   force =     0.00000000   -0.00000000   -0.00000000
     atom    4 type  1   force =    -0.00000000   -0.00000000   -0.00000000
     atom    5 type  1   force =     0.00000000   -0.00000000   -0.00000000
     atom    6 type  1   force =    -0.00000000    0.00000000    0.00000000
     atom    7 type  1   force =     0.00000000    0.00000000    0.00000000
     atom    8 type  1   force =    -0.00000000   -0.00000000    0.00000000
     atom    9 type  1   force =     0.00000000    0.00000000   -0.00000000
     atom   10 type  1   force =    -0.00000000    0.00000000    0.00000000
     atom   11 type  1   force =    -0.00000000    0.00000000    0.00000000
     atom   12 type  1   force =    -0.00000000   -0.00000000   -0.00000000
     atom   13 type  1   force =     0.00000000   -0.00000000    0.00000000
     atom   14 type  1   force =    -0.00000000    0.00000000    0.00000000
     atom   15 type  1   force =    -0.00000000   -0.00000000   -0.00000000
     atom   16 type  1   force =     0.00000000    0.00000000   -0.00000000
     atom   17 type  1   force =    -0.00000000   -0.00000000    0.00000000
     atom   18 type  1   force =     0.00000000   -0.00000000    0.00000000
     atom   19 type  1   force =     0.00000000   -0.00000000    0.00000000
     atom   20 type  1   force =     0.00000000    0.00000000    0.00000000
     atom   21 type  2   force =     0.00000000   -0.00000000    0.00000000
     atom   22 type  3   force =    -0.00000000    0.00000000   -0.00000000
     atom   23 type  3   force =     0.00000000   -0.00000000    0.00000000
     The SCF correction term to forces
     atom    1 type  1   force =     0.00000000    0.00000000    0.00000000
     atom    2 type  1   force =     0.00000000    0.00000000    0.00000000
     atom    3 type  1   force =     0.00000000    0.00000000    0.00000000
     atom    4 type  1   force =     0.00000000    0.00000000    0.00000000
     atom    5 type  1   force =     0.00000000    0.00000000    0.00000000
     atom    6 type  1   force =     0.00000000    0.00000000    0.00000000
     atom    7 type  1   force =     0.00000000    0.00000000    0.00000000
     atom    8 type  1   force =     0.00000000    0.00000000    0.00000000
     atom    9 type  1   force =     0.00000000    0.00000000    0.00000000
     atom   10 type  1   force =     0.00000000    0.00000000    0.00000000
     atom   11 type  1   force =     0.00000000    0.00000000    0.00000000
     atom   12 type  1   force =     0.00000000    0.00000000    0.00000000
     atom   13 type  1   force =    -0.00000712    0.00000568    0.00000157
     atom   14 type  1   force =     0.00000797   -0.00000650    0.00000437
     atom   15 type  1   force =    -0.00000806   -0.00001334    0.00001605
     atom   16 type  1   force =     0.00000956    0.00001231    0.00001585
     atom   17 type  1   force =    -0.00000181   -0.00000903   -0.00013375
     atom   18 type  1   force =    -0.00001091    0.00000724   -0.00010663
     atom   19 type  1   force =     0.00000512   -0.00000325   -0.00009925
     atom   20 type  1   force =     0.00000832    0.00000487   -0.00013385
     atom   21 type  2   force =    -0.00000098    0.00000060   -0.00002293
     atom   22 type  3   force =     0.00000297   -0.00000214   -0.00001891
     atom   23 type  3   force =     0.00000029    0.00000006   -0.00003208

     Total force =     0.000249     Total SCF correction =     0.000246
     SCF correction compared to forces is large: reduce conv_thr to get better values


     entering subroutine stress ...


     negative rho (up, down):  0.527E-04 0.484E-03
          total   stress  (Ry/bohr**3)                   (kbar)     P=   -7.28
  -0.00004384  -0.00004667   0.00000052         -6.45     -6.87      0.08
  -0.00004667  -0.00007683  -0.00000008         -6.87    -11.30     -0.01
   0.00000052  -0.00000008  -0.00002774          0.08     -0.01     -4.08

     kinetic stress (kbar)  41182.86     -1.54    -17.18
                               -1.54  41181.77     12.26
                              -17.18     12.26  40997.88

     local   stress (kbar)**********    700.48   -305.42
                              700.48**********    211.79
                             -305.42    211.791287429.41

     nonloc. stress (kbar) -30889.35     13.85     -3.76
                               13.85 -30879.57      2.54
                               -3.76      2.54 -30764.31

     hartree stress (kbar) 642726.22   -258.06     80.75
                             -258.06 642544.17    -55.55
                               80.75    -55.55-600198.22

     exc-cor stress (kbar)  -1469.45     -0.56      0.85
                               -0.56  -1469.85     -0.60
                                0.85     -0.60  -1473.22

     corecor stress (kbar)  -8243.29     -0.12     -0.25
                               -0.12  -8243.38      0.18
                               -0.25      0.18  -8243.85

     ewald   stress (kbar) 578839.95   -460.92    245.09
                             -460.92 578514.68   -170.63
                              245.09   -170.63-687751.76

     hubbard stress (kbar)     -0.00      0.00     -0.00
                                0.00     -0.00      0.00
                               -0.00      0.00     -0.00

     london  stress (kbar)      0.00      0.00      0.00
                                0.00      0.00      0.00
                                0.00      0.00      0.00

     dft-nl  stress (kbar)      0.00      0.00      0.00
                                0.00      0.00      0.00
                                0.00      0.00      0.00



     Writing output data file Fe_110_2x2_SB_CO_O_25ML.save
 
     init_run     :     39.96s CPU     45.23s WALL (       1 calls)
     electrons    :   1983.68s CPU   2095.86s WALL (       1 calls)
     forces       :     64.69s CPU     65.70s WALL (       1 calls)
     stress       :    316.94s CPU    325.60s WALL (       1 calls)

     Called by init_run:
     wfcinit      :     20.21s CPU     25.25s WALL (       1 calls)
     potinit      :      2.61s CPU      2.68s WALL (       1 calls)

     Called by electrons:
     c_bands      :   1023.06s CPU   1073.50s WALL (      32 calls)
     sum_band     :    517.23s CPU    539.57s WALL (      32 calls)
     v_of_rho     :     20.38s CPU     20.88s WALL (      33 calls)
     v_h          :      1.00s CPU      1.00s WALL (      33 calls)
     v_xc         :     20.58s CPU     21.08s WALL (      35 calls)
     newd         :    300.54s CPU    301.51s WALL (      33 calls)
     mix_rho      :    108.32s CPU    108.69s WALL (      32 calls)

     Called by c_bands:
     init_us_2    :      6.40s CPU      6.43s WALL (     390 calls)
     cegterg      :    948.18s CPU    968.89s WALL (     160 calls)

     Called by sum_band:
     sum_band:bec :      0.36s CPU      0.35s WALL (     160 calls)
     addusdens    :    344.53s CPU    345.20s WALL (      32 calls)

     Called by *egterg:
     h_psi        :    691.08s CPU    692.44s WALL (     603 calls)
     s_psi        :     54.73s CPU     54.87s WALL (     658 calls)
     g_psi        :      1.39s CPU      1.35s WALL (     438 calls)
     cdiaghg      :     73.23s CPU     73.56s WALL (     598 calls)
     cegterg:over :     55.48s CPU     55.61s WALL (     438 calls)
     cegterg:upda :     41.91s CPU     42.14s WALL (     438 calls)
     cegterg:last :     25.45s CPU     25.49s WALL (     160 calls)
     cdiaghg:chol :      3.53s CPU      3.56s WALL (     598 calls)
     cdiaghg:inve :      1.24s CPU      1.22s WALL (     598 calls)
     cdiaghg:para :     14.60s CPU     14.58s WALL (    1196 calls)

     Called by h_psi:
     h_psi:vloc   :    452.06s CPU    453.23s WALL (     603 calls)
     h_psi:vnl    :     99.19s CPU     99.28s WALL (     603 calls)
     add_vuspsi   :     48.03s CPU     48.07s WALL (     603 calls)
     vhpsi        :    137.32s CPU    137.48s WALL (     603 calls)

     General routines
     calbec       :    153.67s CPU    154.00s WALL (    2721 calls)
     fft          :     22.55s CPU     22.89s WALL (    1057 calls)
     ffts         :     50.65s CPU     50.85s WALL (   12279 calls)
     fftw         :    461.72s CPU    462.91s WALL (   86756 calls)
     interpolate  :      3.52s CPU      3.63s WALL (     130 calls)
     davcio       :     11.82s CPU     75.04s WALL (    1145 calls)
 
     Parallel routines
     fft_scatter  :    229.51s CPU    230.55s WALL (  100092 calls)
     ALLTOALL     :     11.44s CPU     11.34s WALL (   86652 calls)
     Hubbard U routines
     new_ns       :     18.27s CPU     33.39s WALL (      32 calls)
     vhpsi        :    137.32s CPU    137.48s WALL (     603 calls)
     force_hub    :     17.69s CPU     18.44s WALL (       1 calls)
     stres_hub    :    173.30s CPU    181.73s WALL (       1 calls)
 
     PAW routines
     PAW_pot      :      8.25s CPU      8.29s WALL (      33 calls)
     PAW_ddot     :      7.27s CPU      7.25s WALL (    1156 calls)
 
     PWSCF        : 40m18.77s CPU    42m45.05s WALL

 
   This run was terminated on:  12:31:23   4Aug2015            

=------------------------------------------------------------------------------=
   JOB DONE.
=------------------------------------------------------------------------------=
Application 16679026 resources: utime ~118703s, stime ~4038s, Rss ~535528, inblocks ~5621101510, outblocks ~907025509
