
     Program PROJWFC v.5.0.2 (svn rev. 9656) starts on 18Sep2015 at 11:18:46 

     This program is part of the open-source Quantum ESPRESSO suite
     for quantum simulation of materials; please cite
         "P. Giannozzi et al., J. Phys.:Condens. Matter 21 395502 (2009);
          URL http://www.quantum-espresso.org", 
     in publications or presentations arising from this work. More details at
     http://www.quantum-espresso.org/quote.php

     Parallel version (MPI & OpenMP), running on      48 processor cores
     Number of MPI processes:                48
     Threads/MPI process:                     1
     K-points division:     npool     =       4
     R & G space division:  proc/nbgrp/npool/nimage =      12

   Info: using nr1, nr2, nr3 values from input

   Info: using nr1s, nr2s, nr3s values from input

     IMPORTANT: XC functional enforced from input :
     Exchange-correlation      = PBE ( 1 4 3 4 0)
     EXX-fraction              =        0.00
     Any further DFT definition will be discarded
     Please, verify this is what you really want

               file Fe.pbe-spn-kjpaw_psl.0.2.1.UPF: wavefunction(s)  3D renormalized
               file S.pbe-n-kjpaw_psl.0.1.UPF: wavefunction(s)  3P renormalized
               file H.pbe-kjpaw_psl.0.1.upf: wavefunction(s)  1S renormalized
 
     Parallelization info
     --------------------
     sticks:   dense  smooth     PW     G-vecs:    dense   smooth      PW
     Min         608     288     79               124119    40608    5765
     Max         610     289     80               124128    40659    5774
     Sum        7305    3457    949              1489451   487579   69203
 

     Check: negative/imaginary core charge=   -0.000011    0.000000

     negative rho (up, down):  0.539E-04 0.124E-02

     Gaussian broadening (read from input): ngauss,degauss=   0    0.010000


     Calling pprojwave .... 
 
  Problem Sizes 
  natomwfc =          266
  nbnd     =          197
  nkstot   =           20
  npwx     =         5107
  nkb      =          372
 

     Atomic states used for projection
     (read from pseudopotential files):

     state #   1: atom   1 (Fe ), wfc  1 (l=0 m= 1)
     state #   2: atom   1 (Fe ), wfc  2 (l=0 m= 1)
     state #   3: atom   1 (Fe ), wfc  3 (l=1 m= 1)
     state #   4: atom   1 (Fe ), wfc  3 (l=1 m= 2)
     state #   5: atom   1 (Fe ), wfc  3 (l=1 m= 3)
     state #   6: atom   1 (Fe ), wfc  4 (l=1 m= 1)
     state #   7: atom   1 (Fe ), wfc  4 (l=1 m= 2)
     state #   8: atom   1 (Fe ), wfc  4 (l=1 m= 3)
     state #   9: atom   1 (Fe ), wfc  5 (l=2 m= 1)
     state #  10: atom   1 (Fe ), wfc  5 (l=2 m= 2)
     state #  11: atom   1 (Fe ), wfc  5 (l=2 m= 3)
     state #  12: atom   1 (Fe ), wfc  5 (l=2 m= 4)
     state #  13: atom   1 (Fe ), wfc  5 (l=2 m= 5)
     state #  14: atom   2 (Fe ), wfc  1 (l=0 m= 1)
     state #  15: atom   2 (Fe ), wfc  2 (l=0 m= 1)
     state #  16: atom   2 (Fe ), wfc  3 (l=1 m= 1)
     state #  17: atom   2 (Fe ), wfc  3 (l=1 m= 2)
     state #  18: atom   2 (Fe ), wfc  3 (l=1 m= 3)
     state #  19: atom   2 (Fe ), wfc  4 (l=1 m= 1)
     state #  20: atom   2 (Fe ), wfc  4 (l=1 m= 2)
     state #  21: atom   2 (Fe ), wfc  4 (l=1 m= 3)
     state #  22: atom   2 (Fe ), wfc  5 (l=2 m= 1)
     state #  23: atom   2 (Fe ), wfc  5 (l=2 m= 2)
     state #  24: atom   2 (Fe ), wfc  5 (l=2 m= 3)
     state #  25: atom   2 (Fe ), wfc  5 (l=2 m= 4)
     state #  26: atom   2 (Fe ), wfc  5 (l=2 m= 5)
     state #  27: atom   3 (Fe ), wfc  1 (l=0 m= 1)
     state #  28: atom   3 (Fe ), wfc  2 (l=0 m= 1)
     state #  29: atom   3 (Fe ), wfc  3 (l=1 m= 1)
     state #  30: atom   3 (Fe ), wfc  3 (l=1 m= 2)
     state #  31: atom   3 (Fe ), wfc  3 (l=1 m= 3)
     state #  32: atom   3 (Fe ), wfc  4 (l=1 m= 1)
     state #  33: atom   3 (Fe ), wfc  4 (l=1 m= 2)
     state #  34: atom   3 (Fe ), wfc  4 (l=1 m= 3)
     state #  35: atom   3 (Fe ), wfc  5 (l=2 m= 1)
     state #  36: atom   3 (Fe ), wfc  5 (l=2 m= 2)
     state #  37: atom   3 (Fe ), wfc  5 (l=2 m= 3)
     state #  38: atom   3 (Fe ), wfc  5 (l=2 m= 4)
     state #  39: atom   3 (Fe ), wfc  5 (l=2 m= 5)
     state #  40: atom   4 (Fe ), wfc  1 (l=0 m= 1)
     state #  41: atom   4 (Fe ), wfc  2 (l=0 m= 1)
     state #  42: atom   4 (Fe ), wfc  3 (l=1 m= 1)
     state #  43: atom   4 (Fe ), wfc  3 (l=1 m= 2)
     state #  44: atom   4 (Fe ), wfc  3 (l=1 m= 3)
     state #  45: atom   4 (Fe ), wfc  4 (l=1 m= 1)
     state #  46: atom   4 (Fe ), wfc  4 (l=1 m= 2)
     state #  47: atom   4 (Fe ), wfc  4 (l=1 m= 3)
     state #  48: atom   4 (Fe ), wfc  5 (l=2 m= 1)
     state #  49: atom   4 (Fe ), wfc  5 (l=2 m= 2)
     state #  50: atom   4 (Fe ), wfc  5 (l=2 m= 3)
     state #  51: atom   4 (Fe ), wfc  5 (l=2 m= 4)
     state #  52: atom   4 (Fe ), wfc  5 (l=2 m= 5)
     state #  53: atom   5 (Fe ), wfc  1 (l=0 m= 1)
     state #  54: atom   5 (Fe ), wfc  2 (l=0 m= 1)
     state #  55: atom   5 (Fe ), wfc  3 (l=1 m= 1)
     state #  56: atom   5 (Fe ), wfc  3 (l=1 m= 2)
     state #  57: atom   5 (Fe ), wfc  3 (l=1 m= 3)
     state #  58: atom   5 (Fe ), wfc  4 (l=1 m= 1)
     state #  59: atom   5 (Fe ), wfc  4 (l=1 m= 2)
     state #  60: atom   5 (Fe ), wfc  4 (l=1 m= 3)
     state #  61: atom   5 (Fe ), wfc  5 (l=2 m= 1)
     state #  62: atom   5 (Fe ), wfc  5 (l=2 m= 2)
     state #  63: atom   5 (Fe ), wfc  5 (l=2 m= 3)
     state #  64: atom   5 (Fe ), wfc  5 (l=2 m= 4)
     state #  65: atom   5 (Fe ), wfc  5 (l=2 m= 5)
     state #  66: atom   6 (Fe ), wfc  1 (l=0 m= 1)
     state #  67: atom   6 (Fe ), wfc  2 (l=0 m= 1)
     state #  68: atom   6 (Fe ), wfc  3 (l=1 m= 1)
     state #  69: atom   6 (Fe ), wfc  3 (l=1 m= 2)
     state #  70: atom   6 (Fe ), wfc  3 (l=1 m= 3)
     state #  71: atom   6 (Fe ), wfc  4 (l=1 m= 1)
     state #  72: atom   6 (Fe ), wfc  4 (l=1 m= 2)
     state #  73: atom   6 (Fe ), wfc  4 (l=1 m= 3)
     state #  74: atom   6 (Fe ), wfc  5 (l=2 m= 1)
     state #  75: atom   6 (Fe ), wfc  5 (l=2 m= 2)
     state #  76: atom   6 (Fe ), wfc  5 (l=2 m= 3)
     state #  77: atom   6 (Fe ), wfc  5 (l=2 m= 4)
     state #  78: atom   6 (Fe ), wfc  5 (l=2 m= 5)
     state #  79: atom   7 (Fe ), wfc  1 (l=0 m= 1)
     state #  80: atom   7 (Fe ), wfc  2 (l=0 m= 1)
     state #  81: atom   7 (Fe ), wfc  3 (l=1 m= 1)
     state #  82: atom   7 (Fe ), wfc  3 (l=1 m= 2)
     state #  83: atom   7 (Fe ), wfc  3 (l=1 m= 3)
     state #  84: atom   7 (Fe ), wfc  4 (l=1 m= 1)
     state #  85: atom   7 (Fe ), wfc  4 (l=1 m= 2)
     state #  86: atom   7 (Fe ), wfc  4 (l=1 m= 3)
     state #  87: atom   7 (Fe ), wfc  5 (l=2 m= 1)
     state #  88: atom   7 (Fe ), wfc  5 (l=2 m= 2)
     state #  89: atom   7 (Fe ), wfc  5 (l=2 m= 3)
     state #  90: atom   7 (Fe ), wfc  5 (l=2 m= 4)
     state #  91: atom   7 (Fe ), wfc  5 (l=2 m= 5)
     state #  92: atom   8 (Fe ), wfc  1 (l=0 m= 1)
     state #  93: atom   8 (Fe ), wfc  2 (l=0 m= 1)
     state #  94: atom   8 (Fe ), wfc  3 (l=1 m= 1)
     state #  95: atom   8 (Fe ), wfc  3 (l=1 m= 2)
     state #  96: atom   8 (Fe ), wfc  3 (l=1 m= 3)
     state #  97: atom   8 (Fe ), wfc  4 (l=1 m= 1)
     state #  98: atom   8 (Fe ), wfc  4 (l=1 m= 2)
     state #  99: atom   8 (Fe ), wfc  4 (l=1 m= 3)
     state # 100: atom   8 (Fe ), wfc  5 (l=2 m= 1)
     state # 101: atom   8 (Fe ), wfc  5 (l=2 m= 2)
     state # 102: atom   8 (Fe ), wfc  5 (l=2 m= 3)
     state # 103: atom   8 (Fe ), wfc  5 (l=2 m= 4)
     state # 104: atom   8 (Fe ), wfc  5 (l=2 m= 5)
     state # 105: atom   9 (Fe ), wfc  1 (l=0 m= 1)
     state # 106: atom   9 (Fe ), wfc  2 (l=0 m= 1)
     state # 107: atom   9 (Fe ), wfc  3 (l=1 m= 1)
     state # 108: atom   9 (Fe ), wfc  3 (l=1 m= 2)
     state # 109: atom   9 (Fe ), wfc  3 (l=1 m= 3)
     state # 110: atom   9 (Fe ), wfc  4 (l=1 m= 1)
     state # 111: atom   9 (Fe ), wfc  4 (l=1 m= 2)
     state # 112: atom   9 (Fe ), wfc  4 (l=1 m= 3)
     state # 113: atom   9 (Fe ), wfc  5 (l=2 m= 1)
     state # 114: atom   9 (Fe ), wfc  5 (l=2 m= 2)
     state # 115: atom   9 (Fe ), wfc  5 (l=2 m= 3)
     state # 116: atom   9 (Fe ), wfc  5 (l=2 m= 4)
     state # 117: atom   9 (Fe ), wfc  5 (l=2 m= 5)
     state # 118: atom  10 (Fe ), wfc  1 (l=0 m= 1)
     state # 119: atom  10 (Fe ), wfc  2 (l=0 m= 1)
     state # 120: atom  10 (Fe ), wfc  3 (l=1 m= 1)
     state # 121: atom  10 (Fe ), wfc  3 (l=1 m= 2)
     state # 122: atom  10 (Fe ), wfc  3 (l=1 m= 3)
     state # 123: atom  10 (Fe ), wfc  4 (l=1 m= 1)
     state # 124: atom  10 (Fe ), wfc  4 (l=1 m= 2)
     state # 125: atom  10 (Fe ), wfc  4 (l=1 m= 3)
     state # 126: atom  10 (Fe ), wfc  5 (l=2 m= 1)
     state # 127: atom  10 (Fe ), wfc  5 (l=2 m= 2)
     state # 128: atom  10 (Fe ), wfc  5 (l=2 m= 3)
     state # 129: atom  10 (Fe ), wfc  5 (l=2 m= 4)
     state # 130: atom  10 (Fe ), wfc  5 (l=2 m= 5)
     state # 131: atom  11 (Fe ), wfc  1 (l=0 m= 1)
     state # 132: atom  11 (Fe ), wfc  2 (l=0 m= 1)
     state # 133: atom  11 (Fe ), wfc  3 (l=1 m= 1)
     state # 134: atom  11 (Fe ), wfc  3 (l=1 m= 2)
     state # 135: atom  11 (Fe ), wfc  3 (l=1 m= 3)
     state # 136: atom  11 (Fe ), wfc  4 (l=1 m= 1)
     state # 137: atom  11 (Fe ), wfc  4 (l=1 m= 2)
     state # 138: atom  11 (Fe ), wfc  4 (l=1 m= 3)
     state # 139: atom  11 (Fe ), wfc  5 (l=2 m= 1)
     state # 140: atom  11 (Fe ), wfc  5 (l=2 m= 2)
     state # 141: atom  11 (Fe ), wfc  5 (l=2 m= 3)
     state # 142: atom  11 (Fe ), wfc  5 (l=2 m= 4)
     state # 143: atom  11 (Fe ), wfc  5 (l=2 m= 5)
     state # 144: atom  12 (Fe ), wfc  1 (l=0 m= 1)
     state # 145: atom  12 (Fe ), wfc  2 (l=0 m= 1)
     state # 146: atom  12 (Fe ), wfc  3 (l=1 m= 1)
     state # 147: atom  12 (Fe ), wfc  3 (l=1 m= 2)
     state # 148: atom  12 (Fe ), wfc  3 (l=1 m= 3)
     state # 149: atom  12 (Fe ), wfc  4 (l=1 m= 1)
     state # 150: atom  12 (Fe ), wfc  4 (l=1 m= 2)
     state # 151: atom  12 (Fe ), wfc  4 (l=1 m= 3)
     state # 152: atom  12 (Fe ), wfc  5 (l=2 m= 1)
     state # 153: atom  12 (Fe ), wfc  5 (l=2 m= 2)
     state # 154: atom  12 (Fe ), wfc  5 (l=2 m= 3)
     state # 155: atom  12 (Fe ), wfc  5 (l=2 m= 4)
     state # 156: atom  12 (Fe ), wfc  5 (l=2 m= 5)
     state # 157: atom  13 (Fe ), wfc  1 (l=0 m= 1)
     state # 158: atom  13 (Fe ), wfc  2 (l=0 m= 1)
     state # 159: atom  13 (Fe ), wfc  3 (l=1 m= 1)
     state # 160: atom  13 (Fe ), wfc  3 (l=1 m= 2)
     state # 161: atom  13 (Fe ), wfc  3 (l=1 m= 3)
     state # 162: atom  13 (Fe ), wfc  4 (l=1 m= 1)
     state # 163: atom  13 (Fe ), wfc  4 (l=1 m= 2)
     state # 164: atom  13 (Fe ), wfc  4 (l=1 m= 3)
     state # 165: atom  13 (Fe ), wfc  5 (l=2 m= 1)
     state # 166: atom  13 (Fe ), wfc  5 (l=2 m= 2)
     state # 167: atom  13 (Fe ), wfc  5 (l=2 m= 3)
     state # 168: atom  13 (Fe ), wfc  5 (l=2 m= 4)
     state # 169: atom  13 (Fe ), wfc  5 (l=2 m= 5)
     state # 170: atom  14 (Fe ), wfc  1 (l=0 m= 1)
     state # 171: atom  14 (Fe ), wfc  2 (l=0 m= 1)
     state # 172: atom  14 (Fe ), wfc  3 (l=1 m= 1)
     state # 173: atom  14 (Fe ), wfc  3 (l=1 m= 2)
     state # 174: atom  14 (Fe ), wfc  3 (l=1 m= 3)
     state # 175: atom  14 (Fe ), wfc  4 (l=1 m= 1)
     state # 176: atom  14 (Fe ), wfc  4 (l=1 m= 2)
     state # 177: atom  14 (Fe ), wfc  4 (l=1 m= 3)
     state # 178: atom  14 (Fe ), wfc  5 (l=2 m= 1)
     state # 179: atom  14 (Fe ), wfc  5 (l=2 m= 2)
     state # 180: atom  14 (Fe ), wfc  5 (l=2 m= 3)
     state # 181: atom  14 (Fe ), wfc  5 (l=2 m= 4)
     state # 182: atom  14 (Fe ), wfc  5 (l=2 m= 5)
     state # 183: atom  15 (Fe ), wfc  1 (l=0 m= 1)
     state # 184: atom  15 (Fe ), wfc  2 (l=0 m= 1)
     state # 185: atom  15 (Fe ), wfc  3 (l=1 m= 1)
     state # 186: atom  15 (Fe ), wfc  3 (l=1 m= 2)
     state # 187: atom  15 (Fe ), wfc  3 (l=1 m= 3)
     state # 188: atom  15 (Fe ), wfc  4 (l=1 m= 1)
     state # 189: atom  15 (Fe ), wfc  4 (l=1 m= 2)
     state # 190: atom  15 (Fe ), wfc  4 (l=1 m= 3)
     state # 191: atom  15 (Fe ), wfc  5 (l=2 m= 1)
     state # 192: atom  15 (Fe ), wfc  5 (l=2 m= 2)
     state # 193: atom  15 (Fe ), wfc  5 (l=2 m= 3)
     state # 194: atom  15 (Fe ), wfc  5 (l=2 m= 4)
     state # 195: atom  15 (Fe ), wfc  5 (l=2 m= 5)
     state # 196: atom  16 (Fe ), wfc  1 (l=0 m= 1)
     state # 197: atom  16 (Fe ), wfc  2 (l=0 m= 1)
     state # 198: atom  16 (Fe ), wfc  3 (l=1 m= 1)
     state # 199: atom  16 (Fe ), wfc  3 (l=1 m= 2)
     state # 200: atom  16 (Fe ), wfc  3 (l=1 m= 3)
     state # 201: atom  16 (Fe ), wfc  4 (l=1 m= 1)
     state # 202: atom  16 (Fe ), wfc  4 (l=1 m= 2)
     state # 203: atom  16 (Fe ), wfc  4 (l=1 m= 3)
     state # 204: atom  16 (Fe ), wfc  5 (l=2 m= 1)
     state # 205: atom  16 (Fe ), wfc  5 (l=2 m= 2)
     state # 206: atom  16 (Fe ), wfc  5 (l=2 m= 3)
     state # 207: atom  16 (Fe ), wfc  5 (l=2 m= 4)
     state # 208: atom  16 (Fe ), wfc  5 (l=2 m= 5)
     state # 209: atom  17 (Fe ), wfc  1 (l=0 m= 1)
     state # 210: atom  17 (Fe ), wfc  2 (l=0 m= 1)
     state # 211: atom  17 (Fe ), wfc  3 (l=1 m= 1)
     state # 212: atom  17 (Fe ), wfc  3 (l=1 m= 2)
     state # 213: atom  17 (Fe ), wfc  3 (l=1 m= 3)
     state # 214: atom  17 (Fe ), wfc  4 (l=1 m= 1)
     state # 215: atom  17 (Fe ), wfc  4 (l=1 m= 2)
     state # 216: atom  17 (Fe ), wfc  4 (l=1 m= 3)
     state # 217: atom  17 (Fe ), wfc  5 (l=2 m= 1)
     state # 218: atom  17 (Fe ), wfc  5 (l=2 m= 2)
     state # 219: atom  17 (Fe ), wfc  5 (l=2 m= 3)
     state # 220: atom  17 (Fe ), wfc  5 (l=2 m= 4)
     state # 221: atom  17 (Fe ), wfc  5 (l=2 m= 5)
     state # 222: atom  18 (Fe ), wfc  1 (l=0 m= 1)
     state # 223: atom  18 (Fe ), wfc  2 (l=0 m= 1)
     state # 224: atom  18 (Fe ), wfc  3 (l=1 m= 1)
     state # 225: atom  18 (Fe ), wfc  3 (l=1 m= 2)
     state # 226: atom  18 (Fe ), wfc  3 (l=1 m= 3)
     state # 227: atom  18 (Fe ), wfc  4 (l=1 m= 1)
     state # 228: atom  18 (Fe ), wfc  4 (l=1 m= 2)
     state # 229: atom  18 (Fe ), wfc  4 (l=1 m= 3)
     state # 230: atom  18 (Fe ), wfc  5 (l=2 m= 1)
     state # 231: atom  18 (Fe ), wfc  5 (l=2 m= 2)
     state # 232: atom  18 (Fe ), wfc  5 (l=2 m= 3)
     state # 233: atom  18 (Fe ), wfc  5 (l=2 m= 4)
     state # 234: atom  18 (Fe ), wfc  5 (l=2 m= 5)
     state # 235: atom  19 (Fe ), wfc  1 (l=0 m= 1)
     state # 236: atom  19 (Fe ), wfc  2 (l=0 m= 1)
     state # 237: atom  19 (Fe ), wfc  3 (l=1 m= 1)
     state # 238: atom  19 (Fe ), wfc  3 (l=1 m= 2)
     state # 239: atom  19 (Fe ), wfc  3 (l=1 m= 3)
     state # 240: atom  19 (Fe ), wfc  4 (l=1 m= 1)
     state # 241: atom  19 (Fe ), wfc  4 (l=1 m= 2)
     state # 242: atom  19 (Fe ), wfc  4 (l=1 m= 3)
     state # 243: atom  19 (Fe ), wfc  5 (l=2 m= 1)
     state # 244: atom  19 (Fe ), wfc  5 (l=2 m= 2)
     state # 245: atom  19 (Fe ), wfc  5 (l=2 m= 3)
     state # 246: atom  19 (Fe ), wfc  5 (l=2 m= 4)
     state # 247: atom  19 (Fe ), wfc  5 (l=2 m= 5)
     state # 248: atom  20 (Fe ), wfc  1 (l=0 m= 1)
     state # 249: atom  20 (Fe ), wfc  2 (l=0 m= 1)
     state # 250: atom  20 (Fe ), wfc  3 (l=1 m= 1)
     state # 251: atom  20 (Fe ), wfc  3 (l=1 m= 2)
     state # 252: atom  20 (Fe ), wfc  3 (l=1 m= 3)
     state # 253: atom  20 (Fe ), wfc  4 (l=1 m= 1)
     state # 254: atom  20 (Fe ), wfc  4 (l=1 m= 2)
     state # 255: atom  20 (Fe ), wfc  4 (l=1 m= 3)
     state # 256: atom  20 (Fe ), wfc  5 (l=2 m= 1)
     state # 257: atom  20 (Fe ), wfc  5 (l=2 m= 2)
     state # 258: atom  20 (Fe ), wfc  5 (l=2 m= 3)
     state # 259: atom  20 (Fe ), wfc  5 (l=2 m= 4)
     state # 260: atom  20 (Fe ), wfc  5 (l=2 m= 5)
     state # 261: atom  21 (S  ), wfc  1 (l=0 m= 1)
     state # 262: atom  21 (S  ), wfc  2 (l=1 m= 1)
     state # 263: atom  21 (S  ), wfc  2 (l=1 m= 2)
     state # 264: atom  21 (S  ), wfc  2 (l=1 m= 3)
     state # 265: atom  22 (H  ), wfc  1 (l=0 m= 1)
     state # 266: atom  23 (H  ), wfc  1 (l=0 m= 1)

 k =   0.0000000000  0.0000000000  0.0000000000
     e =   -83.36549 eV
     psi = 0.238*[#  14]+0.237*[#   1]+0.215*[#  40]+0.215*[#  27]+0.013*[#  58]+
          +0.013*[#  71]+0.013*[#  84]+0.013*[#  97]+0.004*[#  54]+0.004*[#  67]+
          +0.004*[#  80]+0.004*[#  93]+0.004*[# 110]+0.004*[# 123]+0.004*[# 136]+
          +0.004*[# 149]+
    |psi|^2 = 1.000
     e =   -83.35884 eV
     psi = 0.261*[#  14]+0.245*[#   1]+0.231*[#  27]+0.214*[#  40]+0.009*[#  60]+
          +0.009*[#  73]+0.009*[#  86]+0.009*[#  99]+0.002*[#  15]+0.002*[#   2]+
          +0.002*[#  28]+0.002*[#  41]+
    |psi|^2 = 1.000
     e =   -83.35883 eV
     psi = 0.257*[#  40]+0.240*[#  27]+0.235*[#   1]+0.219*[#  14]+0.009*[#  59]+
          +0.009*[#  72]+0.009*[#  85]+0.009*[#  98]+0.002*[#   2]+0.002*[#  41]+
          +0.002*[#  15]+0.002*[#  28]+
    |psi|^2 = 1.000
     e =   -83.35377 eV
     psi = 0.261*[#  27]+0.260*[#  40]+0.230*[#   1]+0.230*[#  14]+0.004*[#  28]+
          +0.004*[#  41]+0.004*[#   2]+0.004*[#  15]+
    |psi|^2 = 1.000
     e =   -83.14108 eV
     psi = 0.470*[# 222]+0.450*[# 209]+0.008*[# 201]+0.007*[# 175]+0.007*[# 188]+
          +0.006*[# 162]+0.004*[# 202]+0.004*[# 176]+0.004*[# 189]+0.003*[# 163]+
          +0.003*[# 110]+0.003*[# 123]+0.002*[# 197]+0.002*[# 171]+0.002*[# 184]+
          +0.002*[# 158]+0.001*[# 223]+0.001*[# 210]+0.001*[# 263]+0.001*[# 136]+
          +0.001*[# 149]+
    |psi|^2 = 1.000
     e =   -83.13373 eV
     psi = 0.492*[# 209]+0.472*[# 222]+0.006*[# 210]+0.005*[# 223]+0.005*[# 203]+
          +0.005*[# 177]+0.005*[# 190]+0.004*[# 164]+0.002*[# 264]+
    |psi|^2 = 1.000
     e =   -83.04441 eV
     psi = 0.494*[# 248]+0.426*[# 235]+0.007*[# 201]+0.006*[# 188]+0.005*[# 162]+
          +0.005*[# 175]+0.005*[# 202]+0.005*[# 176]+0.005*[# 189]+0.004*[# 163]+
          +0.003*[# 149]+0.003*[# 136]+0.003*[# 265]+0.002*[# 197]+0.002*[# 222]+
          +0.002*[# 249]+0.002*[# 209]+0.002*[# 263]+0.001*[# 184]+0.001*[# 236]+
          +0.001*[# 158]+0.001*[# 171]+0.001*[# 266]+0.001*[# 183]+0.001*[# 170]+
    |psi|^2 = 1.000
     e =   -83.03720 eV
     psi = 0.516*[# 235]+0.449*[# 248]+0.006*[# 236]+0.005*[# 249]+0.004*[# 203]+
          +0.004*[# 190]+0.004*[# 177]+0.003*[# 164]+0.001*[# 264]+
    |psi|^2 = 1.000
     e =   -82.81683 eV
     psi = 0.790*[# 157]+0.021*[# 170]+0.021*[# 105]+0.021*[# 118]+0.018*[# 131]+
          +0.018*[# 144]+0.010*[# 183]+0.006*[# 158]+0.006*[#  58]+0.004*[# 214]+
          +0.004*[# 227]+0.004*[# 240]+0.004*[# 253]+0.003*[# 110]+0.003*[# 123]+
          +0.003*[# 136]+0.003*[# 149]+0.003*[#  71]+0.003*[#  84]+0.002*[#  97]+
          +0.002*[# 210]+0.002*[# 223]+0.002*[# 236]+0.002*[# 249]+0.002*[# 111]+
          +0.002*[# 124]+0.002*[# 137]+0.002*[# 150]+0.001*[#  93]+0.001*[# 112]+
          +0.001*[# 125]+0.001*[# 138]+0.001*[# 151]+0.001*[# 215]+0.001*[# 228]+
          +0.001*[# 241]+0.001*[# 254]+0.001*[# 175]+0.001*[# 188]+0.001*[# 201]+
          +0.001*[# 235]+0.001*[# 248]+0.001*[#  92]+0.001*[# 216]+0.001*[# 229]+
          +0.001*[# 242]+0.001*[# 255]+
    |psi|^2 = 1.000
     e =   -82.78318 eV
     psi = 0.652*[# 170]+0.098*[# 157]+0.043*[# 183]+0.033*[# 105]+0.033*[# 118]+
          +0.028*[# 131]+0.028*[# 144]+0.005*[# 171]+0.005*[#  71]+0.005*[# 158]+
          +0.003*[#  84]+0.002*[#  97]+0.002*[# 214]+0.002*[# 227]+0.002*[# 240]+
          +0.002*[# 253]+0.002*[#  79]+0.002*[# 188]+0.002*[#  53]+0.002*[# 162]+
          +0.002*[# 175]+0.002*[#  66]+0.002*[# 201]+0.002*[# 112]+0.002*[# 125]+
          +0.002*[# 138]+0.002*[# 151]+0.001*[#  58]+0.001*[# 216]+0.001*[# 229]+
          +0.001*[# 210]+0.001*[# 223]+0.001*[# 242]+0.001*[# 255]+0.001*[#  80]+
          +0.001*[#  92]+0.001*[# 236]+0.001*[# 249]+0.001*[# 265]+
    |psi|^2 = 1.000
     e =   -82.76646 eV
     psi = 0.606*[# 183]+0.177*[# 170]+0.029*[# 105]+0.029*[# 118]+0.023*[# 131]+
          +0.023*[# 144]+0.023*[# 157]+0.005*[# 184]+0.005*[# 171]+0.004*[#  84]+
          +0.004*[# 111]+0.004*[# 124]+0.004*[# 137]+0.004*[# 150]+0.003*[# 215]+
          +0.003*[# 228]+0.003*[# 241]+0.003*[# 254]+0.002*[#  66]+0.002*[# 112]+
          +0.002*[# 125]+0.002*[# 138]+0.002*[# 151]+0.002*[#  53]+0.002*[# 158]+
          +0.002*[# 175]+0.002*[# 216]+0.002*[# 229]+0.002*[# 242]+0.002*[# 255]+
          +0.001*[#  79]+0.002*[# 162]+0.001*[# 188]+0.002*[# 201]+0.001*[#  97]+
          +0.001*[#  92]+0.001*[#  58]+0.001*[# 196]+
    |psi|^2 = 1.000
     e =   -82.73843 eV
     psi = 0.568*[# 118]+0.176*[# 105]+0.138*[# 131]+0.039*[# 144]+0.009*[# 119]+
          +0.006*[#  60]+0.006*[#  73]+0.006*[#  86]+0.006*[#  99]+0.006*[# 164]+
          +0.006*[# 190]+0.006*[# 203]+0.006*[# 177]+0.005*[# 183]+0.003*[# 106]+
          +0.002*[# 132]+0.001*[# 170]+
    |psi|^2 = 1.000
     e =   -82.73843 eV
     psi = 0.529*[# 105]+0.141*[# 144]+0.139*[# 118]+0.048*[# 183]+0.040*[# 131]+
          +0.013*[# 170]+0.008*[# 106]+0.005*[#  59]+0.005*[#  72]+0.005*[#  85]+
          +0.005*[#  98]+0.005*[# 163]+0.005*[# 189]+0.005*[# 202]+0.005*[# 176]+
          +0.003*[# 157]+0.002*[#  53]+0.002*[# 119]+0.002*[# 145]+0.002*[# 184]+
          +0.002*[#  66]+0.001*[#  79]+0.001*[#   6]+0.001*[#  92]+
    |psi|^2 = 1.000
     e =   -82.73434 eV
     psi = 0.270*[# 144]+0.265*[# 131]+0.213*[# 183]+0.063*[# 170]+0.016*[# 105]+
          +0.015*[# 157]+0.014*[# 118]+0.014*[#  53]+0.010*[#  66]+0.010*[#  79]+
          +0.009*[# 184]+0.008*[#  92]+0.006*[# 196]+0.006*[# 162]+0.005*[# 188]+
          +0.005*[# 175]+0.005*[# 201]+0.005*[# 171]+0.004*[# 110]+0.004*[# 123]+
          +0.004*[# 136]+0.004*[# 149]+0.003*[# 132]+0.004*[# 145]+0.003*[#  97]+
          +0.002*[# 158]+0.002*[#  58]+0.002*[#  32]+0.002*[#  45]+0.002*[#  71]+
          +0.001*[#  84]+0.001*[#  59]+0.001*[#  72]+0.001*[#  85]+0.001*[#  98]+
          +0.001*[# 163]+0.001*[# 176]+0.001*[# 189]+0.001*[# 202]+0.001*[#   6]+
    |psi|^2 = 1.000
     e =   -82.73182 eV
     psi = 0.390*[# 131]+0.383*[# 144]+0.100*[# 105]+0.100*[# 118]+0.006*[# 132]+
          +0.006*[# 145]+0.002*[# 106]+0.002*[# 119]+
    |psi|^2 = 1.000
     e =   -82.63955 eV
     psi = 0.894*[#  53]+0.015*[#  92]+0.013*[#  54]+0.004*[# 131]+0.004*[# 144]+
          +0.004*[# 105]+0.004*[# 118]+0.003*[# 112]+0.003*[# 125]+0.003*[# 138]+
          +0.003*[# 151]+0.002*[# 111]+0.002*[# 124]+0.002*[# 137]+0.002*[# 150]+
          +0.002*[# 196]+0.002*[#   7]+0.002*[#   8]+0.002*[#  20]+0.002*[#  21]+
          +0.002*[#  33]+0.002*[#  34]+0.002*[#  46]+0.002*[#  47]+0.002*[#  66]+
          +0.002*[# 110]+0.002*[# 123]+0.002*[# 136]+0.002*[# 149]+0.001*[#  79]+
    |psi|^2 = 1.000
     e =   -82.63231 eV
     psi = 0.623*[#  66]+0.303*[#  79]+0.008*[#  67]+0.004*[#  80]+0.004*[# 111]+
          +0.004*[# 124]+0.004*[# 137]+0.004*[# 150]+0.003*[# 112]+0.003*[# 125]+
          +0.003*[# 138]+0.003*[# 151]+0.003*[#   7]+0.003*[#  20]+0.003*[#  33]+
          +0.003*[#  46]+0.003*[#   8]+0.003*[#  21]+0.003*[#  34]+0.003*[#  47]+
    |psi|^2 = 1.000
     e =   -82.62641 eV
     psi = 0.603*[#  79]+0.282*[#  66]+0.015*[# 196]+0.009*[#  80]+0.008*[# 131]+
          +0.008*[# 144]+0.008*[# 105]+0.008*[# 118]+0.005*[# 110]+0.005*[# 123]+
          +0.005*[# 136]+0.005*[# 149]+0.004*[#  67]+0.002*[#   6]+0.002*[#  19]+
          +0.002*[#  32]+0.002*[#  45]+0.002*[#  92]+0.002*[# 106]+0.002*[# 119]+
          +0.002*[# 132]+0.002*[# 145]+0.001*[#   2]+0.001*[#  15]+0.001*[#  28]+
          +0.001*[#  41]+
    |psi|^2 = 1.000
     e =   -82.61570 eV
     psi = 0.897*[#  92]+0.013*[#  93]+0.011*[#  53]+0.007*[# 196]+0.005*[# 131]+
          +0.005*[# 144]+0.005*[# 105]+0.005*[# 118]+0.003*[# 110]+0.003*[# 123]+
          +0.003*[# 136]+0.003*[# 149]+0.002*[#   6]+0.002*[#  19]+0.002*[#  32]+
          +0.002*[#  45]+0.001*[#   7]+0.001*[#   8]+0.001*[#  20]+0.001*[#  21]+
          +0.001*[#  33]+0.001*[#  34]+0.001*[#  46]+0.001*[#  47]+0.001*[# 106]+
          +0.001*[# 111]+0.001*[# 112]+0.001*[# 119]+0.001*[# 124]+0.001*[# 125]+
          +0.001*[# 132]+0.001*[# 137]+0.001*[# 138]+0.001*[# 145]+0.001*[# 150]+
          +0.001*[# 151]+
    |psi|^2 = 1.000
     e =   -82.60058 eV
     psi = 0.892*[# 196]+0.013*[# 197]+0.006*[#  79]+0.006*[# 131]+0.006*[# 144]+
          +0.005*[# 105]+0.005*[# 118]+0.005*[#  66]+0.004*[#  53]+0.002*[#  92]+
          +0.002*[# 111]+0.002*[# 214]+0.002*[# 227]+0.002*[# 112]+0.002*[# 124]+
          +0.002*[# 137]+0.002*[# 138]+0.002*[# 150]+0.002*[# 106]+0.002*[# 119]+
          +0.002*[# 125]+0.002*[# 132]+0.002*[# 145]+0.002*[# 151]+0.002*[# 215]+
          +0.002*[# 216]+0.002*[# 228]+0.002*[# 229]+0.002*[# 240]+0.002*[# 253]+
          +0.002*[# 241]+0.002*[# 242]+0.002*[# 254]+0.002*[# 255]+0.001*[# 110]+
          +0.001*[# 123]+0.001*[# 136]+0.001*[# 149]+0.001*[# 210]+0.001*[# 223]+
          +0.001*[# 236]+0.001*[# 249]+
    |psi|^2 = 1.000
     e =   -49.54427 eV
     psi = 0.257*[#   3]+0.246*[#  16]+0.240*[#  42]+0.229*[#  29]+0.004*[#  56]+
          +0.004*[#  69]+0.004*[#  82]+0.004*[#  95]+0.002*[#  59]+0.002*[#  72]+
          +0.002*[#  85]+0.002*[#  98]+
    |psi|^2 = 1.000
     e =   -49.54427 eV
     psi = 0.250*[#  16]+0.247*[#  29]+0.238*[#   3]+0.237*[#  42]+0.004*[#  57]+
          +0.004*[#  70]+0.004*[#  83]+0.004*[#  96]+0.002*[#  60]+0.002*[#  73]+
          +0.002*[#  86]+0.002*[#  99]+
    |psi|^2 = 1.000
     e =   -49.54196 eV
     psi = 0.255*[#  29]+0.254*[#  42]+0.238*[#   3]+0.237*[#  16]+0.002*[#  55]+
          +0.002*[#  68]+0.002*[#  81]+0.002*[#  94]+0.001*[#  54]+0.001*[#  67]+
          +0.001*[#  80]+0.001*[#  93]+
    |psi|^2 = 1.000
     e =   -49.52566 eV
     psi = 0.249*[#  29]+0.249*[#  42]+0.247*[#   3]+0.247*[#  16]+0.001*[#   6]+
          +0.001*[#  19]+0.001*[#  32]+0.001*[#  45]+
    |psi|^2 = 1.000
     e =   -49.39644 eV
     psi = 0.144*[#   5]+0.144*[#  18]+0.117*[#  17]+0.116*[#   4]+0.114*[#  43]+
          +0.113*[#  30]+0.105*[#  31]+0.105*[#  44]+0.010*[#  55]+0.009*[#  94]+
          +0.004*[#  58]+0.004*[#  97]+0.002*[#  54]+0.002*[#  93]+
    |psi|^2 = 1.000
     e =   -49.39401 eV
     psi = 0.135*[#   5]+0.135*[#  18]+0.125*[#  17]+0.125*[#   4]+0.125*[#  43]+
          +0.124*[#  30]+0.095*[#  31]+0.095*[#  44]+0.010*[#  68]+0.010*[#  81]+
          +0.004*[#  71]+0.004*[#  84]+0.002*[#  67]+0.002*[#  80]+
    |psi|^2 = 1.000
     e =   -49.39171 eV
     psi = 0.281*[#  31]+0.281*[#  44]+0.202*[#  18]+0.202*[#   5]+0.007*[#  56]+
          +0.006*[#  82]+0.006*[#  95]+0.006*[#  69]+0.002*[#  59]+0.001*[#  72]+
          +0.001*[#  85]+0.002*[#  98]+
    |psi|^2 = 1.000
     e =   -49.39165 eV
     psi = 0.243*[#   4]+0.243*[#  17]+0.240*[#  30]+0.240*[#  43]+0.007*[#  57]+
          +0.006*[#  70]+0.006*[#  96]+0.006*[#  83]+0.002*[#  60]+0.001*[#  73]+
          +0.001*[#  86]+0.002*[#  99]+
    |psi|^2 = 1.000
     e =   -49.32830 eV
     psi = 0.255*[#   5]+0.255*[#  18]+0.233*[#  31]+0.233*[#  44]+0.004*[#  70]+
          +0.004*[#  83]+0.003*[#  57]+0.003*[#  96]+0.002*[#   8]+0.002*[#  21]+
          +0.002*[#  34]+0.002*[#  47]+
    |psi|^2 = 1.000
     e =   -49.32821 eV
     psi = 0.245*[#  30]+0.245*[#  43]+0.242*[#  17]+0.242*[#   4]+0.004*[#  69]+
          +0.004*[#  82]+0.003*[#  56]+0.003*[#  95]+0.002*[#   7]+0.002*[#  20]+
          +0.002*[#  33]+0.002*[#  46]+
    |psi|^2 = 1.000
     e =   -49.31638 eV
     psi = 0.133*[#  31]+0.133*[#  44]+0.120*[#  30]+0.119*[#  43]+0.118*[#   5]+
          +0.118*[#  18]+0.118*[#   4]+0.118*[#  17]+0.003*[#  34]+0.003*[#  47]+
          +0.003*[#   7]+0.003*[#   8]+0.003*[#  20]+0.003*[#  21]+0.003*[#  33]+
          +0.003*[#  46]+
    |psi|^2 = 1.000
     e =   -49.31382 eV
     psi = 0.126*[#  30]+0.126*[#  43]+0.125*[#   4]+0.125*[#  17]+0.122*[#  31]+
          +0.122*[#  44]+0.115*[#   5]+0.115*[#  18]+0.003*[#   7]+0.003*[#  20]+
          +0.003*[#  33]+0.003*[#  46]+0.003*[#   8]+0.003*[#  21]+0.003*[#  34]+
          +0.003*[#  47]+
    |psi|^2 = 1.000
     e =   -49.26540 eV
     psi = 0.325*[# 226]+0.322*[# 213]+0.086*[# 225]+0.085*[# 212]+0.050*[# 224]+
          +0.048*[# 211]+0.016*[# 159]+0.009*[# 160]+0.008*[# 198]+0.007*[# 251]+
          +0.007*[# 238]+0.005*[# 186]+0.003*[# 185]+0.003*[# 239]+0.003*[# 252]+
          +0.002*[# 201]+0.002*[# 199]+0.002*[# 162]+0.001*[# 158]+0.001*[# 262]+
          +0.001*[# 163]+
    |psi|^2 = 1.000
     e =   -49.23377 eV
     psi = 0.388*[# 224]+0.350*[# 211]+0.084*[# 212]+0.076*[# 225]+0.014*[# 238]+
          +0.013*[# 251]+0.011*[# 198]+0.010*[# 185]+0.009*[# 199]+0.007*[# 186]+
          +0.006*[# 173]+0.005*[# 213]+0.004*[# 226]+0.003*[# 160]+0.002*[# 197]+
          +0.001*[# 202]+0.001*[# 239]+0.001*[# 252]+0.001*[# 263]+
    |psi|^2 = 1.000
     e =   -49.23108 eV
     psi = 0.292*[# 211]+0.259*[# 224]+0.131*[# 225]+0.119*[# 212]+0.055*[# 213]+
          +0.053*[# 226]+0.022*[# 161]+0.017*[# 251]+0.015*[# 238]+0.014*[# 174]+
          +0.003*[# 237]+0.003*[# 250]+0.002*[# 164]+0.002*[# 177]+0.002*[# 187]+
          +0.001*[# 107]+0.001*[# 120]+
    |psi|^2 = 1.000
     e =   -49.22472 eV
     psi = 0.237*[# 212]+0.236*[# 225]+0.170*[# 211]+0.165*[# 224]+0.045*[# 251]+
          +0.045*[# 238]+0.025*[# 200]+0.023*[# 187]+0.007*[# 213]+0.007*[# 237]+
          +0.007*[# 250]+0.007*[# 226]+0.004*[# 264]+0.003*[# 203]+0.003*[# 252]+
          +0.003*[# 190]+0.003*[# 239]+0.001*[# 161]+
    |psi|^2 = 1.000
     e =   -49.21821 eV
     psi = 0.215*[# 212]+0.211*[# 225]+0.134*[# 226]+0.131*[# 213]+0.051*[# 211]+
          +0.050*[# 224]+0.050*[# 238]+0.049*[# 251]+0.025*[# 172]+0.016*[# 185]+
          +0.015*[# 173]+0.007*[# 239]+0.007*[# 252]+0.005*[# 199]+0.005*[# 159]+
          +0.002*[# 266]+0.002*[# 175]+0.002*[# 237]+0.002*[# 250]+0.002*[# 241]+
          +0.002*[# 254]+0.001*[# 171]+0.001*[# 186]+0.002*[# 188]+0.001*[# 176]+
          +0.001*[# 202]+
    |psi|^2 = 1.000
     e =   -49.18828 eV
     psi = 0.402*[# 252]+0.398*[# 239]+0.023*[# 225]+0.023*[# 212]+0.018*[# 172]+
          +0.016*[# 250]+0.016*[# 237]+0.012*[# 199]+0.011*[# 185]+0.011*[# 238]+
          +0.011*[# 251]+0.009*[# 160]+0.008*[# 173]+0.006*[# 198]+0.005*[# 159]+
          +0.003*[# 186]+0.003*[# 109]+0.003*[# 122]+0.002*[# 265]+0.002*[# 263]+
          +0.002*[# 266]+0.001*[# 202]+0.001*[# 242]+
    |psi|^2 = 1.000
     e =   -49.15731 eV
     psi = 0.413*[# 213]+0.412*[# 226]+0.027*[# 212]+0.027*[# 225]+0.019*[# 174]+
          +0.018*[# 251]+0.018*[# 238]+0.016*[# 211]+0.016*[# 224]+0.009*[# 187]+
          +0.006*[# 216]+0.006*[# 229]+0.003*[# 239]+0.002*[# 252]+0.002*[# 200]+
          +0.002*[# 237]+0.002*[# 250]+
    |psi|^2 = 1.000
     e =   -49.12695 eV
     psi = 0.444*[# 250]+0.403*[# 237]+0.021*[# 186]+0.019*[# 160]+0.018*[# 239]+
          +0.017*[# 185]+0.014*[# 252]+0.012*[# 159]+0.009*[# 173]+0.007*[# 172]+
          +0.006*[# 199]+0.003*[# 107]+0.003*[# 120]+0.003*[# 198]+0.002*[# 146]+
          +0.002*[# 211]+0.002*[# 133]+0.002*[# 163]+0.002*[# 189]+0.001*[# 224]+
    |psi|^2 = 1.000
     e =   -49.12145 eV
     psi = 0.231*[# 237]+0.201*[# 250]+0.153*[# 252]+0.150*[# 239]+0.072*[# 238]+
          +0.071*[# 251]+0.029*[# 212]+0.028*[# 225]+0.012*[# 224]+0.011*[# 211]+
          +0.010*[# 200]+0.006*[# 174]+0.002*[# 187]+0.002*[# 242]+0.002*[# 255]+
          +0.002*[# 133]+0.001*[# 146]+0.001*[# 213]+
    |psi|^2 = 1.000
     e =   -49.10142 eV
     psi = 0.213*[# 250]+0.211*[# 251]+0.210*[# 237]+0.135*[# 239]+0.086*[# 252]+
          +0.045*[# 225]+0.022*[# 161]+0.016*[# 238]+0.010*[# 187]+0.008*[# 211]+
          +0.007*[# 224]+0.005*[# 174]+0.005*[# 212]+0.002*[# 146]+0.002*[# 228]+
          +0.002*[# 133]+0.002*[# 173]+0.002*[# 255]+0.001*[# 242]+0.001*[# 254]+
          +0.001*[# 172]+0.001*[# 186]+0.001*[# 185]+
    |psi|^2 = 1.000
     e =   -49.10102 eV
     psi = 0.434*[# 238]+0.245*[# 251]+0.084*[# 212]+0.047*[# 252]+0.045*[# 225]+
          +0.027*[# 173]+0.026*[# 237]+0.015*[# 172]+0.013*[# 186]+0.011*[# 250]+
          +0.011*[# 185]+0.004*[# 160]+0.004*[# 215]+0.004*[# 159]+0.003*[# 121]+
          +0.002*[# 108]+0.002*[# 213]+0.002*[# 228]+0.002*[# 265]+0.002*[# 161]+
          +0.002*[# 199]+0.002*[# 226]+0.001*[# 224]+0.001*[# 109]+0.001*[# 241]+
    |psi|^2 = 1.000
     e =   -49.06377 eV
     psi = 0.223*[# 238]+0.218*[# 251]+0.204*[# 239]+0.201*[# 252]+0.042*[# 212]+
          +0.041*[# 225]+0.016*[# 187]+0.009*[# 213]+0.009*[# 226]+0.009*[# 174]+
          +0.003*[# 242]+0.003*[# 255]+0.003*[# 215]+0.003*[# 228]+0.002*[# 241]+
          +0.002*[# 254]+0.001*[# 237]+0.001*[# 250]+
    |psi|^2 = 1.000
     e =   -48.94776 eV
     psi = 0.498*[# 159]+0.059*[# 135]+0.059*[# 148]+0.048*[# 109]+0.048*[# 122]+
          +0.034*[# 134]+0.034*[# 147]+0.033*[# 108]+0.033*[# 121]+0.024*[#  55]+
          +0.021*[#  94]+0.010*[# 133]+0.010*[# 146]+0.007*[# 198]+0.007*[# 160]+
          +0.006*[# 185]+0.005*[# 239]+0.005*[# 252]+0.004*[# 213]+0.004*[# 226]+
          +0.004*[# 238]+0.004*[# 251]+0.002*[#  58]+0.002*[# 138]+0.002*[# 151]+
          +0.002*[# 212]+0.002*[# 225]+0.002*[# 112]+0.002*[# 125]+0.002*[# 158]+
          +0.002*[# 186]+0.001*[# 211]+0.001*[# 224]+0.001*[# 107]+0.001*[# 120]+
          +0.001*[#  54]+0.001*[#  68]+0.001*[# 124]+0.001*[# 137]+0.001*[#  93]+
          +0.001*[# 111]+0.001*[# 150]+0.001*[# 237]+0.001*[# 250]+
    |psi|^2 = 1.000
     e =   -48.93993 eV
     psi = 0.172*[# 172]+0.123*[# 185]+0.112*[# 109]+0.112*[# 122]+0.059*[# 108]+
          +0.059*[# 121]+0.056*[# 134]+0.056*[# 147]+0.029*[#  81]+0.027*[#  68]+
          +0.020*[# 239]+0.020*[# 238]+0.020*[# 251]+0.020*[# 252]+0.018*[# 173]+
          +0.016*[# 160]+0.009*[# 135]+0.009*[# 148]+0.004*[# 186]+0.003*[#  56]+
          +0.003*[# 212]+0.003*[# 225]+0.003*[#  82]+0.003*[# 159]+0.003*[#  69]+
          +0.003*[# 199]+0.002*[# 112]+0.002*[# 125]+0.002*[#  95]+0.002*[# 111]+
          +0.002*[# 124]+0.002*[# 137]+0.002*[# 150]+0.002*[# 171]+0.002*[# 184]+
          +0.002*[#  71]+0.002*[#  84]+0.001*[#  67]+0.001*[#  80]+0.001*[# 213]+
          +0.001*[# 226]+
    |psi|^2 = 1.000
     e =   -48.93509 eV
     psi = 0.229*[# 160]+0.118*[# 148]+0.118*[# 135]+0.081*[# 186]+0.066*[# 109]+
          +0.066*[# 122]+0.033*[#  69]+0.032*[#  95]+0.028*[# 185]+0.016*[# 173]+
          +0.016*[# 146]+0.015*[# 108]+0.015*[# 133]+0.014*[# 121]+0.011*[# 107]+
          +0.010*[# 134]+0.010*[# 120]+0.010*[# 147]+0.009*[# 213]+0.009*[# 226]+
          +0.008*[#  56]+0.008*[# 172]+0.007*[#  82]+0.006*[# 239]+0.006*[# 252]+
          +0.006*[# 250]+0.006*[# 237]+0.005*[# 199]+0.003*[#  68]+0.003*[# 159]+
          +0.003*[#  81]+0.002*[# 211]+0.002*[# 251]+0.002*[# 224]+0.002*[# 238]+
          +0.002*[# 189]+0.001*[#   5]+0.001*[#  18]+0.001*[# 138]+0.001*[# 151]+
    |psi|^2 = 1.000
     e =   -48.93479 eV
     psi = 0.273*[# 161]+0.100*[# 121]+0.099*[# 108]+0.096*[# 147]+0.095*[# 134]+
          +0.092*[# 174]+0.036*[#  96]+0.035*[#  83]+0.017*[# 238]+0.017*[# 251]+
          +0.015*[# 120]+0.014*[# 107]+0.014*[# 187]+0.013*[# 133]+0.013*[# 146]+
          +0.010*[#  57]+0.007*[#  70]+0.007*[# 237]+0.006*[# 250]+0.006*[# 200]+
          +0.006*[# 212]+0.006*[# 225]+0.002*[# 211]+0.002*[# 224]+0.002*[# 177]+
          +0.001*[#   4]+0.001*[#  17]+0.001*[#  30]+0.001*[#  43]+
    |psi|^2 = 1.000
     e =   -48.91370 eV
     psi = 0.160*[# 173]+0.134*[# 107]+0.132*[# 120]+0.059*[# 146]+0.058*[# 133]+
          +0.055*[#  82]+0.053*[#  56]+0.049*[# 160]+0.035*[# 135]+0.035*[# 148]+
          +0.032*[# 185]+0.027*[# 199]+0.027*[# 237]+0.027*[# 250]+0.016*[# 186]+
          +0.009*[# 109]+0.009*[# 122]+0.007*[#  95]+0.006*[# 211]+0.006*[# 224]+
          +0.006*[#  69]+0.005*[# 134]+0.005*[# 147]+0.005*[# 172]+0.002*[#  68]+
          +0.002*[# 202]+0.002*[# 213]+0.002*[# 226]+0.002*[# 159]+0.001*[#  29]+
          +0.001*[#  59]+0.001*[#  85]+0.001*[#   3]+0.001*[#  16]+0.001*[#  42]+
          +0.001*[# 212]+0.001*[# 225]+0.001*[# 214]+0.001*[# 227]+
    |psi|^2 = 1.000
     e =   -48.91214 eV
     psi = 0.135*[# 187]+0.101*[# 120]+0.100*[# 107]+0.098*[# 133]+0.097*[# 146]+
          +0.071*[#  70]+0.069*[#  57]+0.043*[# 161]+0.034*[# 108]+0.034*[# 121]+
          +0.034*[# 200]+0.034*[# 134]+0.034*[# 147]+0.020*[# 237]+0.020*[# 250]+
          +0.013*[# 174]+0.008*[# 211]+0.008*[# 224]+0.005*[#  96]+0.004*[#  83]+
          +0.002*[# 203]+0.002*[#  73]+0.002*[# 238]+0.002*[# 251]+0.002*[#  60]+
          +0.002*[# 239]+0.002*[# 252]+0.001*[#   3]+0.001*[#  16]+0.001*[#  29]+
          +0.001*[#  42]+
    |psi|^2 = 1.000
     e =   -48.89384 eV
     psi = 0.243*[# 172]+0.205*[# 185]+0.133*[# 133]+0.133*[# 146]+0.045*[# 107]+
          +0.045*[# 120]+0.026*[# 135]+0.026*[# 148]+0.026*[#  55]+0.017*[# 198]+
          +0.009*[# 134]+0.009*[# 147]+0.008*[#  56]+0.007*[# 108]+0.007*[# 121]+
          +0.007*[#  82]+0.006*[# 159]+0.004*[# 211]+0.004*[# 224]+0.004*[#  68]+
          +0.004*[# 237]+0.004*[# 250]+0.004*[#  81]+0.004*[# 199]+0.001*[# 173]+
          +0.001*[# 197]+0.001*[# 201]+0.001*[#  54]+
    |psi|^2 = 1.000
     e =   -48.84709 eV
     psi = 0.172*[# 160]+0.123*[# 108]+0.122*[# 121]+0.097*[# 186]+0.088*[# 147]+
          +0.088*[# 134]+0.063*[# 173]+0.054*[#  69]+0.049*[#  56]+0.023*[# 120]+
          +0.022*[# 107]+0.015*[# 199]+0.011*[# 159]+0.006*[# 238]+0.006*[# 251]+
          +0.006*[# 148]+0.005*[# 135]+0.005*[# 133]+0.004*[# 146]+0.004*[# 172]+
          +0.004*[# 212]+0.004*[# 225]+0.004*[# 185]+0.003*[#  82]+0.003*[# 198]+
          +0.002*[#  55]+0.001*[# 122]+0.001*[# 163]+0.001*[#  81]+
    |psi|^2 = 1.000
     e =   -48.84670 eV
     psi = 0.199*[# 161]+0.135*[# 174]+0.118*[# 109]+0.118*[# 122]+0.101*[# 135]+
          +0.100*[# 148]+0.056*[#  83]+0.040*[#  57]+0.039*[# 187]+0.013*[# 200]+
          +0.011*[# 107]+0.010*[# 120]+0.009*[# 146]+0.009*[# 133]+0.007*[#  70]+
          +0.006*[# 239]+0.006*[# 252]+0.003*[# 213]+0.004*[# 226]+0.002*[# 134]+
          +0.002*[# 164]+0.002*[# 121]+0.001*[# 147]+0.001*[# 108]+
    |psi|^2 = 1.000
     e =   -48.83303 eV
     psi = 0.211*[# 159]+0.165*[# 172]+0.134*[# 185]+0.049*[# 147]+0.049*[# 198]+
          +0.049*[# 134]+0.041*[# 109]+0.041*[# 122]+0.036*[#  55]+0.026*[# 160]+
          +0.021*[# 107]+0.021*[# 120]+0.019*[# 133]+0.019*[# 146]+0.018*[# 135]+
          +0.018*[# 148]+0.013*[#  94]+0.011*[# 186]+0.010*[#  81]+0.006*[#  68]+
          +0.006*[# 108]+0.006*[# 121]+0.005*[# 162]+0.004*[#  82]+0.004*[# 173]+
          +0.003*[#  69]+
    |psi|^2 = 1.000
     e =   -48.79370 eV
     psi = 0.336*[# 173]+0.236*[# 160]+0.060*[#  56]+0.050*[#  95]+0.028*[# 148]+
          +0.028*[# 135]+0.026*[# 134]+0.027*[# 147]+0.026*[# 159]+0.024*[#  69]+
          +0.022*[#  82]+0.020*[# 109]+0.020*[# 122]+0.011*[# 185]+0.010*[#  94]+
          +0.007*[# 186]+0.007*[# 133]+0.007*[# 146]+0.006*[#  81]+0.004*[# 163]+
          +0.004*[# 107]+0.004*[# 120]+0.004*[# 176]+0.003*[# 239]+0.003*[# 252]+
          +0.003*[# 199]+0.002*[# 213]+0.002*[# 226]+0.002*[# 198]+0.001*[#   5]+
          +0.001*[#  18]+0.001*[# 238]+0.001*[# 251]+0.001*[#  31]+0.001*[#  44]+
    |psi|^2 = 1.000
     e =   -48.78688 eV
     psi = 0.218*[# 161]+0.127*[# 133]+0.127*[# 146]+0.102*[#  96]+0.087*[# 187]+
          +0.044*[# 120]+0.044*[# 107]+0.037*[#  83]+0.036*[# 108]+0.036*[# 121]+
          +0.034*[# 109]+0.034*[# 122]+0.023*[#  57]+0.005*[# 200]+0.005*[# 135]+
          +0.004*[# 148]+0.004*[# 134]+0.004*[# 147]+0.004*[# 174]+0.002*[# 164]+
          +0.002*[# 238]+0.002*[# 251]+0.001*[# 190]+0.001*[# 212]+0.001*[# 225]+
    |psi|^2 = 1.000
     e =   -48.78534 eV
     psi = 0.192*[# 107]+0.192*[# 120]+0.114*[# 161]+0.112*[# 146]+0.112*[# 133]+
          +0.057*[#  96]+0.050*[# 187]+0.029*[# 134]+0.028*[# 147]+0.025*[# 135]+
          +0.025*[# 148]+0.020*[#  83]+0.014*[#  57]+0.004*[# 174]+0.003*[# 200]+
          +0.001*[# 238]+0.001*[# 251]+0.001*[# 164]+0.001*[# 109]+0.001*[# 110]+
          +0.001*[# 122]+0.001*[# 123]+
    |psi|^2 = 1.000
     e =   -48.77591 eV
     psi = 0.129*[# 159]+0.106*[# 120]+0.105*[# 107]+0.070*[#  95]+0.069*[#  94]+
          +0.069*[# 160]+0.049*[# 172]+0.045*[# 121]+0.044*[# 108]+0.042*[# 186]+
          +0.033*[#  81]+0.028*[#  69]+0.026*[# 133]+0.026*[# 146]+0.023*[# 185]+
          +0.022*[#  68]+0.019*[# 109]+0.019*[# 122]+0.018*[#  82]+0.008*[# 237]+
          +0.008*[# 250]+0.005*[# 173]+0.002*[# 199]+0.002*[# 198]+0.002*[# 106]+
          +0.002*[# 119]+0.002*[#  55]+0.002*[# 201]+0.001*[#  93]+
    |psi|^2 = 1.000
     e =   -48.77127 eV
     psi = 0.147*[# 173]+0.130*[# 186]+0.101*[#  95]+0.077*[#  82]+0.071*[# 146]+
          +0.070*[# 133]+0.066*[# 185]+0.039*[#  69]+0.034*[# 159]+0.031*[# 160]+
          +0.026*[#  94]+0.025*[#  68]+0.019*[# 147]+0.019*[# 134]+0.016*[#  56]+
          +0.014*[# 135]+0.014*[# 148]+0.013*[# 172]+0.009*[# 108]+0.009*[# 121]+
          +0.006*[# 211]+0.006*[# 224]+0.006*[#  81]+0.005*[# 199]+0.003*[# 109]+
          +0.003*[# 122]+0.003*[# 132]+0.003*[# 145]+0.002*[# 120]+0.002*[#   3]+
          +0.002*[#  16]+0.002*[# 107]+0.001*[#  55]+0.001*[# 202]+0.001*[#  32]+
          +0.001*[#  45]+0.001*[#  72]+0.001*[# 210]+0.001*[# 223]+
    |psi|^2 = 1.000
     e =   -48.76990 eV
     psi = 0.379*[# 174]+0.277*[# 187]+0.068*[#  83]+0.063*[#  57]+0.056*[#  70]+
          +0.053*[#  96]+0.013*[# 133]+0.012*[# 146]+0.012*[# 107]+0.011*[# 120]+
          +0.006*[# 237]+0.006*[# 250]+0.004*[# 224]+0.004*[# 211]+0.003*[# 164]+
          +0.002*[# 203]+0.001*[# 161]+0.002*[# 177]+0.001*[#   3]+0.001*[#  16]+
          +0.001*[#  29]+0.001*[#  42]+0.001*[# 132]+0.001*[#  73]+0.001*[#  86]+
          +0.001*[# 106]+0.001*[# 119]+0.001*[# 145]+
    |psi|^2 = 1.000
     e =   -48.75247 eV
     psi = 0.243*[# 185]+0.223*[# 172]+0.064*[#  68]+0.057*[# 186]+0.056*[#  81]+
          +0.048*[# 108]+0.048*[# 121]+0.033*[# 122]+0.033*[# 109]+0.029*[# 148]+
          +0.029*[# 135]+0.017*[# 147]+0.017*[# 134]+0.016*[# 173]+0.010*[#  69]+
          +0.008*[#  56]+0.007*[# 188]+0.006*[# 160]+0.006*[# 175]+0.006*[# 238]+
          +0.006*[# 251]+0.005*[# 239]+0.005*[# 252]+0.003*[# 213]+0.003*[# 226]+
          +0.002*[# 212]+0.002*[# 225]+
    |psi|^2 = 1.000
     e =   -48.74907 eV
     psi = 0.167*[# 109]+0.167*[# 122]+0.132*[# 135]+0.132*[# 148]+0.095*[# 108]+
          +0.095*[# 121]+0.086*[# 134]+0.086*[# 147]+0.007*[# 174]+0.004*[# 187]+
          +0.004*[# 112]+0.004*[# 125]+0.003*[#  70]+0.003*[# 138]+0.003*[# 151]+
          +0.002*[# 111]+0.002*[# 124]+0.002*[# 137]+0.002*[# 150]+0.001*[# 161]+
    |psi|^2 = 1.000
     e =   -48.74417 eV
     psi = 0.152*[# 147]+0.151*[# 134]+0.136*[# 121]+0.136*[# 108]+0.092*[# 109]+
          +0.092*[# 122]+0.064*[# 135]+0.064*[# 148]+0.017*[# 107]+0.017*[# 120]+
          +0.017*[# 133]+0.017*[# 146]+0.007*[# 174]+0.005*[# 187]+0.005*[#  70]+
          +0.003*[# 111]+0.003*[# 124]+0.003*[# 137]+0.003*[# 150]+0.002*[#  83]+
          +0.002*[# 112]+0.002*[# 125]+0.001*[# 138]+0.001*[# 151]+0.001*[# 161]+
    |psi|^2 = 1.000
     e =   -48.73979 eV
     psi = 0.226*[# 174]+0.206*[#  70]+0.157*[# 187]+0.087*[# 135]+0.087*[# 148]+
          +0.065*[#  83]+0.043*[# 161]+0.042*[# 200]+0.008*[# 109]+0.008*[#  96]+
          +0.008*[# 122]+0.007*[#  57]+0.004*[# 177]+0.004*[# 238]+0.004*[# 251]+
          +0.004*[# 108]+0.004*[# 121]+0.002*[# 212]+0.002*[# 225]+0.002*[# 239]+
          +0.002*[# 252]+0.001*[# 138]+0.001*[# 151]+0.001*[# 164]+0.001*[# 213]+
          +0.001*[# 226]+
    |psi|^2 = 1.000
     e =   -48.73526 eV
     psi = 0.395*[# 186]+0.128*[#  82]+0.115*[#  69]+0.055*[# 160]+0.051*[# 173]+
          +0.049*[# 134]+0.049*[# 147]+0.030*[# 199]+0.020*[# 108]+0.019*[# 121]+
          +0.016*[# 172]+0.015*[# 185]+0.005*[# 135]+0.005*[# 148]+0.005*[# 189]+
          +0.004*[#  68]+0.004*[#  81]+0.004*[# 213]+0.004*[# 226]+0.003*[# 163]+
          +0.002*[# 212]+0.002*[# 225]+0.001*[# 239]+0.001*[# 252]+
    |psi|^2 = 1.000
     e =   -48.67712 eV
     psi = 0.609*[#  56]+0.220*[# 199]+0.050*[# 173]+0.011*[# 133]+0.011*[# 146]+
          +0.010*[# 107]+0.010*[# 120]+0.010*[# 135]+0.010*[# 148]+0.007*[# 109]+
          +0.007*[# 122]+0.005*[#  69]+0.004*[# 176]+0.004*[#  59]+0.002*[#  82]+
          +0.002*[#  85]+0.001*[#  95]+0.001*[# 172]+0.001*[# 198]+0.001*[# 238]+
          +0.001*[# 251]+
    |psi|^2 = 1.000
     e =   -48.67626 eV
     psi = 0.593*[#  57]+0.219*[# 200]+0.070*[# 187]+0.016*[#  70]+0.009*[# 133]+
          +0.009*[# 146]+0.009*[# 107]+0.009*[# 120]+0.008*[# 134]+0.008*[# 147]+
          +0.007*[# 108]+0.007*[# 121]+0.006*[#  83]+0.004*[#  60]+0.004*[# 190]+
          +0.002*[#  96]+0.002*[#  73]+0.001*[# 239]+0.001*[# 252]+
    |psi|^2 = 1.000
     e =   -48.66468 eV
     psi = 0.324*[#  82]+0.272*[#  69]+0.235*[#  95]+0.066*[# 199]+0.026*[#  56]+
          +0.016*[# 173]+0.006*[# 107]+0.006*[# 120]+0.006*[# 133]+0.006*[# 146]+
          +0.006*[#  98]+0.005*[#  72]+0.004*[#  85]+0.003*[#  59]+0.002*[# 176]+
          +0.002*[# 160]+
    |psi|^2 = 1.000
     e =   -48.66411 eV
     psi = 0.291*[#  70]+0.271*[#  83]+0.241*[#  96]+0.085*[# 200]+0.032*[# 187]+
          +0.017*[#  57]+0.006*[# 107]+0.006*[# 120]+0.006*[# 133]+0.006*[# 146]+
          +0.006*[#  99]+0.005*[#  86]+0.004*[#  73]+0.003*[# 190]+0.002*[#  60]+
          +0.002*[# 135]+0.002*[# 148]+0.002*[# 161]+0.001*[# 109]+0.001*[# 122]+
          +0.001*[# 134]+0.001*[# 147]+0.001*[# 108]+0.001*[# 121]+
    |psi|^2 = 1.000
     e =   -48.64383 eV
     psi = 0.515*[#  55]+0.137*[#  94]+0.135*[#  68]+0.131*[#  81]+0.060*[# 198]+
          +0.002*[# 159]+0.002*[#  58]+0.001*[#  71]+0.001*[#  84]+0.001*[# 162]+
    |psi|^2 = 1.000
     e =   -48.62692 eV
     psi = 0.332*[#  83]+0.142*[#  96]+0.061*[# 147]+0.061*[# 134]+0.057*[# 108]+
          +0.057*[# 121]+0.057*[#  70]+0.056*[# 174]+0.025*[# 146]+0.025*[# 133]+
          +0.024*[# 120]+0.024*[# 107]+0.017*[# 161]+0.006*[# 187]+0.005*[# 148]+
          +0.005*[# 135]+0.005*[# 200]+0.005*[# 109]+0.004*[# 122]+0.002*[# 177]+
          +0.002*[#  86]+0.002*[#   4]+0.002*[#  17]+0.002*[#  30]+0.002*[#  43]+
          +0.001*[#  73]+0.001*[# 111]+0.001*[# 124]+0.001*[# 137]+0.001*[# 150]+
          +0.001*[# 110]+0.001*[# 123]+0.001*[# 136]+0.001*[# 149]+0.001*[# 164]+
    |psi|^2 = 1.000
     e =   -48.62643 eV
     psi = 0.148*[#  68]+0.142*[#  69]+0.123*[#  81]+0.109*[# 198]+0.081*[#  55]+
          +0.050*[#  82]+0.050*[#  95]+0.035*[# 122]+0.035*[# 109]+0.033*[# 186]+
          +0.030*[# 135]+0.030*[# 148]+0.027*[# 107]+0.027*[# 120]+0.010*[# 199]+
          +0.006*[# 160]+0.005*[#  94]+0.004*[# 173]+0.003*[# 134]+0.003*[# 147]+
          +0.003*[# 159]+0.003*[# 172]+0.003*[# 121]+0.003*[# 108]+0.003*[# 185]+
          +0.002*[#   5]+0.002*[#  18]+0.001*[#  97]+0.002*[# 239]+0.002*[# 252]+
          +0.001*[#  72]+0.001*[# 189]+
    |psi|^2 = 1.000
     e =   -48.62532 eV
     psi = 0.172*[#  69]+0.129*[#  81]+0.120*[#  68]+0.085*[# 198]+0.074*[#  55]+
          +0.071*[#  95]+0.046*[# 133]+0.046*[# 146]+0.045*[# 186]+0.029*[# 135]+
          +0.029*[# 148]+0.026*[# 109]+0.026*[#  82]+0.026*[# 122]+0.008*[# 160]+
          +0.005*[#  94]+0.004*[# 185]+0.003*[# 108]+0.003*[# 121]+0.003*[# 134]+
          +0.003*[# 147]+0.002*[# 159]+0.002*[# 107]+0.002*[# 120]+0.002*[#  56]+
          +0.002*[# 172]+0.001*[#  31]+0.001*[#  44]+0.002*[# 189]+0.001*[#  72]+
          +0.001*[#  97]+0.001*[# 199]+0.001*[#   3]+0.001*[#  16]+0.001*[#   2]+
          +0.001*[#  15]+0.001*[# 213]+0.001*[# 226]+
    |psi|^2 = 1.000
     e =   -48.61603 eV
     psi = 0.292*[#  95]+0.238*[#  82]+0.064*[# 199]+0.051*[# 107]+0.050*[# 120]+
          +0.038*[# 146]+0.038*[# 133]+0.032*[# 134]+0.032*[# 147]+0.030*[# 121]+
          +0.030*[# 108]+0.020*[# 173]+0.020*[#  69]+0.017*[# 160]+0.003*[#  55]+
          +0.003*[#  81]+0.003*[#  98]+0.002*[#  85]+0.002*[# 110]+0.002*[# 123]+
          +0.002*[# 136]+0.002*[# 149]+0.001*[#  56]+0.001*[#  68]+0.001*[#  72]+
    |psi|^2 = 1.000
     e =   -48.61573 eV
     psi = 0.254*[#  96]+0.246*[#  70]+0.076*[# 200]+0.047*[# 120]+0.047*[# 133]+
          +0.046*[# 107]+0.046*[# 146]+0.037*[# 187]+0.030*[# 135]+0.030*[# 148]+
          +0.028*[# 109]+0.028*[# 122]+0.023*[#  83]+0.014*[# 161]+0.003*[# 108]+
          +0.003*[# 147]+0.003*[# 121]+0.003*[# 134]+0.003*[#  99]+0.003*[#  73]+
          +0.002*[# 110]+0.002*[# 123]+0.002*[# 136]+0.002*[# 149]+0.001*[#  86]+
    |psi|^2 = 1.000
     e =   -48.59726 eV
     psi = 0.451*[# 200]+0.129*[#  57]+0.066*[#  96]+0.046*[#  83]+0.039*[# 135]+
          +0.040*[# 148]+0.035*[# 109]+0.035*[# 122]+0.015*[# 134]+0.015*[# 147]+
          +0.014*[# 108]+0.014*[# 121]+0.012*[# 146]+0.012*[# 107]+0.012*[# 120]+
          +0.012*[# 133]+0.005*[# 161]+0.005*[# 174]+0.005*[# 203]+0.003*[#  60]+
          +0.001*[# 138]+0.001*[# 151]+0.001*[# 187]+0.001*[# 112]+0.001*[# 125]+
          +0.001*[# 237]+0.001*[# 250]+0.001*[# 211]+0.001*[# 224]+
    |psi|^2 = 1.000
     e =   -48.59543 eV
     psi = 0.453*[# 199]+0.116*[#  56]+0.050*[#  95]+0.038*[#  69]+0.036*[# 108]+
          +0.036*[# 121]+0.030*[# 134]+0.029*[# 147]+0.026*[# 107]+0.026*[# 120]+
          +0.015*[# 198]+0.015*[# 109]+0.015*[# 122]+0.012*[# 135]+0.012*[# 148]+
          +0.011*[#  94]+0.009*[#  55]+0.007*[# 186]+0.006*[#  68]+0.005*[# 202]+
          +0.004*[#  81]+0.005*[# 133]+0.004*[# 146]+0.005*[# 160]+0.002*[#  59]+
          +0.002*[# 237]+0.002*[# 250]+0.001*[# 111]+0.001*[# 124]+0.001*[# 173]+
          +0.001*[# 238]+0.001*[# 251]+0.001*[# 239]+0.001*[# 252]+
    |psi|^2 = 1.000
     e =   -48.58462 eV
     psi = 0.385*[#  68]+0.224*[#  81]+0.121*[#  94]+0.034*[# 198]+0.029*[# 109]+
          +0.029*[# 122]+0.026*[# 135]+0.026*[# 148]+0.016*[# 134]+0.016*[# 147]+
          +0.010*[# 185]+0.008*[# 108]+0.008*[# 121]+0.006*[# 133]+0.006*[# 146]+
          +0.005*[#  84]+0.005*[# 199]+0.004*[#  71]+0.003*[# 107]+0.003*[# 120]+
          +0.003*[# 172]+0.002*[#   5]+0.002*[#  18]+0.002*[#  31]+0.002*[#  44]+
          +0.001*[#   8]+0.001*[#  21]+0.001*[#  34]+0.001*[#  47]+0.001*[#  55]+
    |psi|^2 = 1.000
     e =   -48.58400 eV
     psi = 0.454*[#  94]+0.200*[#  81]+0.123*[# 198]+0.024*[# 133]+0.024*[# 146]+
          +0.022*[# 108]+0.022*[# 121]+0.017*[# 199]+0.013*[#  68]+0.012*[# 107]+
          +0.012*[# 120]+0.011*[# 134]+0.011*[# 147]+0.007*[# 172]+0.005*[#  55]+
          +0.004*[# 159]+0.003*[#  97]+0.002*[#  56]+0.002*[#  30]+0.002*[#  43]+
          +0.002*[#   4]+0.002*[#  17]+0.002*[#  71]+0.001*[# 135]+0.001*[# 148]+
    |psi|^2 = 1.000
     e =   -48.56435 eV
     psi = 0.444*[# 198]+0.190*[#  55]+0.097*[#  94]+0.028*[# 135]+0.028*[# 148]+
          +0.028*[# 134]+0.028*[# 147]+0.018*[# 108]+0.017*[# 121]+0.017*[# 109]+
          +0.017*[# 122]+0.013*[# 199]+0.006*[# 133]+0.006*[# 146]+0.005*[# 159]+
          +0.004*[#  81]+0.004*[#  58]+0.004*[#  68]+0.004*[# 201]+0.002*[# 107]+
          +0.002*[# 120]+0.001*[# 162]+0.001*[# 213]+0.002*[# 226]+0.001*[# 212]+
          +0.001*[# 225]+0.001*[#  97]+0.001*[# 137]+0.001*[# 138]+0.001*[# 150]+
          +0.001*[# 151]+0.001*[# 211]+0.001*[# 224]+
    |psi|^2 = 1.000
     e =    -8.62370 eV
     psi = 0.651*[# 261]+0.035*[# 162]+0.022*[# 236]+0.022*[# 249]+0.021*[# 210]+
          +0.021*[# 223]+0.013*[# 216]+0.013*[# 229]+0.012*[# 241]+0.012*[# 254]+
          +0.012*[# 215]+0.012*[# 228]+0.012*[# 242]+0.012*[# 255]+0.009*[# 158]+
          +0.007*[# 214]+0.007*[# 227]+0.006*[# 240]+0.006*[# 253]+0.006*[# 262]+
          +0.006*[# 188]+0.006*[# 175]+0.006*[# 165]+0.004*[# 221]+0.004*[# 234]+
          +0.004*[# 201]+0.003*[# 247]+0.003*[# 260]+0.003*[# 197]+0.002*[# 266]+
          +0.002*[# 157]+0.002*[# 218]+0.002*[# 219]+0.002*[# 231]+0.002*[# 232]+
          +0.002*[# 244]+0.002*[# 257]+0.002*[# 265]+0.002*[# 171]+0.002*[# 184]+
          +0.002*[# 245]+0.002*[# 258]+0.001*[# 209]+0.001*[# 235]+0.001*[# 248]+
          +0.001*[# 110]+0.001*[# 123]+0.001*[# 222]+0.001*[# 136]+0.001*[# 149]+
          +0.001*[# 159]+
    |psi|^2 = 0.999
     e =    -3.08667 eV
     psi = 0.097*[# 266]+0.084*[# 265]+0.061*[# 184]+0.057*[# 171]+0.042*[# 236]+
          +0.042*[# 249]+0.038*[# 261]+0.029*[# 197]+0.028*[# 210]+0.028*[# 223]+
          +0.026*[# 106]+0.026*[# 119]+0.026*[# 132]+0.026*[# 145]+0.025*[# 158]+
          +0.019*[# 247]+0.019*[# 260]+0.018*[#  80]+0.017*[#  67]+0.016*[#  54]+
          +0.016*[#  93]+0.011*[# 221]+0.011*[# 234]+0.009*[# 214]+0.009*[# 227]+
          +0.009*[# 240]+0.009*[# 253]+0.008*[# 183]+0.008*[# 191]+0.007*[#   2]+
          +0.007*[#  15]+0.007*[#  28]+0.007*[#  41]+0.007*[# 170]+0.007*[# 262]+
          +0.006*[# 196]+0.006*[# 243]+0.006*[# 256]+0.005*[# 188]+0.005*[# 235]+
          +0.005*[# 248]+0.005*[# 178]+0.004*[#  84]+0.004*[# 157]+0.004*[#  71]+
          +0.004*[# 131]+0.004*[# 144]+0.004*[# 105]+0.004*[# 118]+0.004*[# 175]+
          +0.004*[# 209]+0.004*[# 222]+0.003*[#   6]+0.003*[#  19]+0.003*[#  32]+
          +0.003*[#  45]+0.003*[#  97]+0.003*[#  58]+0.003*[# 217]+0.003*[# 230]+
          +0.002*[# 136]+0.002*[# 149]+0.002*[# 110]+0.002*[# 123]+0.002*[# 215]+
          +0.002*[#  66]+0.002*[#  79]+0.002*[#  92]+0.002*[# 228]+0.002*[#  53]+
          +0.002*[# 165]+0.001*[# 241]+0.001*[# 254]+
    |psi|^2 = 0.996
     e =    -2.09898 eV
     psi = 0.062*[# 266]+0.050*[# 265]+0.048*[#  54]+0.047*[# 188]+0.047*[#  93]+
          +0.043*[#  67]+0.043*[#  80]+0.042*[# 175]+0.031*[#   2]+0.031*[#  15]+
          +0.031*[#  28]+0.031*[#  41]+0.028*[# 132]+0.028*[# 145]+0.028*[# 106]+
          +0.028*[# 119]+0.023*[# 201]+0.020*[# 247]+0.020*[# 260]+0.017*[# 162]+
          +0.015*[# 136]+0.015*[# 149]+0.014*[# 110]+0.014*[# 123]+0.012*[# 221]+
          +0.012*[# 234]+0.011*[# 191]+0.010*[# 243]+0.010*[# 256]+0.009*[# 158]+
          +0.009*[# 261]+0.008*[#  53]+0.007*[#  66]+0.007*[#  92]+0.007*[# 236]+
          +0.007*[#  79]+0.007*[# 249]+0.007*[#   6]+0.007*[#  19]+0.007*[#  32]+
          +0.007*[#  45]+0.007*[# 178]+0.006*[# 197]+0.005*[# 217]+0.005*[# 230]+
          +0.005*[# 105]+0.005*[# 118]+0.004*[# 131]+0.004*[# 144]+0.003*[#   1]+
          +0.003*[#  14]+0.003*[#  27]+0.003*[#  40]+0.002*[# 240]+0.002*[# 253]+
          +0.002*[# 214]+0.002*[# 227]+0.002*[# 185]+0.002*[# 235]+0.002*[# 248]+
          +0.002*[#  87]+0.001*[#  74]+0.002*[# 172]+0.001*[# 210]+0.001*[# 223]+
          +0.001*[# 179]+
    |psi|^2 = 0.996
     e =    -1.01336 eV
     psi = 0.189*[# 265]+0.172*[# 266]+0.044*[# 191]+0.043*[# 242]+0.043*[# 255]+
          +0.039*[# 171]+0.038*[# 241]+0.038*[# 254]+0.036*[# 184]+0.035*[# 178]+
          +0.030*[# 216]+0.030*[# 229]+0.028*[# 215]+0.028*[# 228]+0.019*[# 175]+
          +0.019*[# 188]+0.014*[# 168]+0.011*[# 207]+0.009*[# 179]+0.008*[# 263]+
          +0.006*[# 170]+0.006*[# 220]+0.006*[# 233]+0.005*[# 183]+0.004*[# 112]+
          +0.004*[# 125]+0.004*[# 111]+0.004*[# 124]+0.004*[# 138]+0.004*[# 151]+
          +0.004*[# 137]+0.004*[# 150]+0.003*[# 236]+0.003*[# 239]+0.003*[# 249]+
          +0.003*[# 252]+0.003*[# 176]+0.003*[# 210]+0.002*[# 223]+0.003*[# 238]+
          +0.003*[# 251]+0.002*[#  71]+0.002*[# 212]+0.002*[# 213]+0.002*[# 205]+
          +0.002*[# 225]+0.002*[# 226]+0.001*[#  84]+0.001*[#  87]+0.001*[# 115]+
          +0.001*[# 128]+0.001*[# 202]+0.001*[#  74]+0.001*[# 114]+0.001*[# 127]+
          +0.001*[# 141]+0.001*[# 154]+0.001*[# 246]+
    |psi|^2 = 0.989
     e =    -0.64434 eV
     psi = 0.066*[# 262]+0.058*[# 263]+0.049*[# 158]+0.035*[# 191]+0.033*[# 110]+
          +0.033*[# 123]+0.029*[# 266]+0.028*[# 221]+0.028*[# 234]+0.026*[#  58]+
          +0.026*[# 136]+0.026*[# 149]+0.024*[# 178]+0.021*[#  28]+0.021*[#  41]+
          +0.021*[#  97]+0.020*[#   2]+0.020*[#  15]+0.019*[#  71]+0.018*[#  84]+
          +0.018*[# 247]+0.018*[# 260]+0.017*[# 197]+0.017*[# 265]+0.016*[# 240]+
          +0.016*[# 253]+0.013*[# 223]+0.013*[# 210]+0.012*[#  80]+0.011*[#  67]+
          +0.011*[# 214]+0.011*[# 227]+0.011*[# 261]+0.009*[# 259]+0.009*[# 246]+
          +0.008*[# 171]+0.007*[#  93]+0.007*[#  54]+0.006*[# 220]+0.006*[# 233]+
          +0.006*[# 157]+0.006*[# 166]+0.005*[#  61]+0.005*[# 245]+0.005*[# 258]+
          +0.004*[# 184]+0.004*[# 243]+0.004*[# 256]+0.004*[# 192]+0.004*[# 179]+
          +0.003*[# 196]+0.003*[# 205]+0.003*[# 163]+0.003*[# 170]+0.003*[#   1]+
          +0.003*[#  14]+0.003*[#  27]+0.003*[#  40]+0.003*[# 100]+0.003*[# 132]+
          +0.003*[# 145]+0.003*[# 176]+0.003*[# 202]+0.003*[# 236]+0.003*[# 244]+
          +0.003*[# 257]+0.003*[# 189]+0.003*[# 249]+0.002*[# 183]+0.002*[# 106]+
          +0.002*[# 119]+0.002*[# 209]+0.002*[# 222]+0.002*[# 188]+0.002*[#   9]+
          +0.002*[#  22]+0.002*[#  35]+0.002*[#  48]+0.002*[#  79]+0.002*[#  92]+
          +0.002*[# 181]+0.001*[#  66]+0.002*[# 162]+0.001*[# 117]+0.001*[# 130]+
          +0.001*[# 143]+0.001*[# 156]+0.001*[#  53]+0.001*[# 194]+0.001*[# 242]+
          +0.001*[# 105]+0.001*[# 107]+0.001*[# 118]+0.001*[# 120]+0.001*[# 255]+
          +0.001*[#  74]+0.001*[# 139]+0.001*[# 152]+
    |psi|^2 = 0.995
     e =    -0.44335 eV
     psi = 0.413*[# 264]+0.039*[# 246]+0.039*[# 233]+0.039*[# 259]+0.038*[# 220]+
          +0.037*[# 167]+0.036*[# 210]+0.036*[# 249]+0.036*[# 223]+0.036*[# 236]+
          +0.020*[# 206]+0.018*[# 164]+0.017*[# 180]+0.015*[# 203]+0.014*[# 177]+
          +0.013*[# 190]+0.012*[# 218]+0.012*[# 231]+0.012*[# 244]+0.012*[# 257]+
          +0.011*[# 193]+0.007*[# 221]+0.007*[# 234]+0.006*[# 247]+0.006*[# 260]+
          +0.005*[# 241]+0.005*[# 254]+0.005*[# 215]+0.005*[# 228]+0.003*[# 219]+
          +0.003*[# 232]+0.002*[# 243]+0.002*[# 245]+0.002*[# 256]+0.002*[# 258]+
          +0.002*[# 217]+0.002*[# 230]+0.001*[# 209]+0.001*[# 222]+0.001*[# 113]+
          +0.001*[# 126]+0.001*[# 139]+0.001*[# 152]+0.001*[# 235]+0.001*[# 248]+
    |psi|^2 = 0.994
     e =    -0.41972 eV
     psi = 0.352*[# 263]+0.036*[# 247]+0.036*[# 260]+0.030*[# 166]+0.028*[# 223]+
          +0.028*[# 210]+0.026*[# 220]+0.026*[# 233]+0.026*[# 259]+0.026*[# 246]+
          +0.024*[# 236]+0.023*[# 249]+0.018*[# 265]+0.016*[# 219]+0.016*[# 232]+
          +0.016*[# 262]+0.014*[# 178]+0.014*[# 242]+0.014*[# 255]+0.014*[# 163]+
          +0.014*[# 205]+0.012*[# 192]+0.011*[# 158]+0.010*[# 202]+0.010*[# 189]+
          +0.008*[# 176]+0.006*[# 214]+0.006*[# 227]+0.006*[# 245]+0.006*[# 258]+
          +0.006*[# 136]+0.006*[# 149]+0.005*[#  58]+0.004*[# 175]+0.003*[#  84]+
          +0.004*[# 218]+0.004*[# 231]+0.003*[#   2]+0.003*[#  97]+0.003*[# 191]+
          +0.003*[#  15]+0.003*[# 179]+0.003*[# 217]+0.003*[# 230]+0.003*[# 215]+
          +0.003*[# 228]+0.003*[# 184]+0.002*[#  28]+0.002*[#  41]+0.002*[#  67]+
          +0.002*[#  71]+0.002*[# 113]+0.002*[# 126]+0.002*[# 197]+0.001*[#  80]+
          +0.001*[# 110]+0.001*[# 123]+0.001*[# 248]+0.001*[#  61]+0.001*[# 216]+
          +0.001*[# 229]+0.001*[# 235]+0.001*[# 171]+0.001*[# 207]+0.001*[# 244]+
          +0.001*[# 261]+0.001*[# 257]+
    |psi|^2 = 0.994
     e =    -0.03858 eV
     psi = 0.255*[# 262]+0.048*[# 165]+0.036*[# 217]+0.036*[# 230]+0.034*[# 243]+
          +0.034*[# 256]+0.033*[# 197]+0.029*[# 194]+0.026*[# 181]+0.025*[# 261]+
          +0.024*[# 204]+0.022*[# 158]+0.015*[#  97]+0.013*[# 162]+0.012*[#  84]+
          +0.012*[# 221]+0.012*[# 234]+0.012*[#  71]+0.010*[# 244]+0.010*[# 245]+
          +0.010*[# 257]+0.010*[# 258]+0.009*[# 218]+0.009*[# 231]+0.008*[# 184]+
          +0.008*[# 219]+0.008*[# 232]+0.007*[#   2]+0.007*[#  15]+0.007*[#  28]+
          +0.007*[#  41]+0.007*[# 136]+0.007*[# 149]+0.007*[# 110]+0.007*[# 123]+
          +0.007*[# 247]+0.007*[# 260]+0.006*[# 171]+0.006*[# 178]+0.006*[# 191]+
          +0.004*[#  58]+0.004*[# 106]+0.004*[# 119]+0.004*[# 114]+0.004*[# 127]+
          +0.004*[# 132]+0.004*[# 140]+0.004*[# 145]+0.004*[# 153]+0.004*[# 196]+
          +0.003*[# 111]+0.003*[# 124]+0.003*[# 137]+0.003*[# 150]+0.003*[# 115]+
          +0.003*[# 128]+0.003*[# 141]+0.003*[# 154]+0.003*[# 112]+0.003*[# 125]+
          +0.003*[# 138]+0.003*[# 151]+0.003*[# 201]+0.003*[#   9]+0.003*[#  22]+
          +0.003*[#  35]+0.003*[#  48]+0.003*[#  61]+0.003*[# 175]+0.002*[# 188]+
          +0.002*[# 215]+0.002*[# 228]+0.002*[#  93]+0.002*[#  54]+0.002*[# 216]+
          +0.002*[# 229]+0.002*[# 241]+0.002*[# 254]+0.001*[# 143]+0.001*[# 156]+
          +0.001*[# 117]+0.001*[# 130]+0.001*[# 242]+0.001*[# 255]+
    |psi|^2 = 0.995
     e =     0.43420 eV
     psi = 0.110*[#  64]+0.086*[# 103]+0.058*[#  67]+0.058*[#  80]+0.032*[# 207]+
          +0.030*[# 114]+0.030*[# 127]+0.030*[# 140]+0.030*[# 153]+0.029*[# 141]+
          +0.029*[# 154]+0.028*[# 115]+0.028*[# 128]+0.025*[#  10]+0.025*[#  23]+
          +0.025*[#  36]+0.025*[#  49]+0.023*[#  11]+0.023*[#  24]+0.023*[#  37]+
          +0.023*[#  50]+0.020*[# 191]+0.017*[# 178]+0.014*[# 168]+0.012*[#  74]+
          +0.010*[# 171]+0.010*[# 184]+0.009*[#  87]+0.006*[# 218]+0.006*[# 231]+
          +0.006*[# 245]+0.006*[# 258]+0.006*[# 219]+0.006*[# 232]+0.006*[# 244]+
          +0.006*[# 257]+0.005*[#   7]+0.005*[#  20]+0.005*[#  33]+0.005*[#  46]+
          +0.005*[#   8]+0.005*[#  21]+0.005*[#  34]+0.005*[#  47]+0.003*[# 111]+
          +0.003*[#  66]+0.003*[#  79]+0.003*[# 112]+0.003*[# 124]+0.003*[# 125]+
          +0.003*[# 137]+0.003*[# 150]+0.003*[# 138]+0.003*[# 151]+0.002*[# 265]+
          +0.001*[# 194]+0.001*[# 266]+
    |psi|^2 = 0.998
     e =     0.45159 eV
     psi = 0.107*[#  77]+0.102*[#  90]+0.068*[#  54]+0.055*[#  93]+0.033*[# 165]+
          +0.028*[# 115]+0.028*[# 128]+0.028*[# 141]+0.028*[# 154]+0.027*[#  11]+
          +0.027*[#  24]+0.027*[#  37]+0.027*[#  50]+0.026*[# 114]+0.026*[# 127]+
          +0.026*[# 140]+0.026*[# 153]+0.025*[#  10]+0.025*[#  23]+0.025*[#  36]+
          +0.025*[#  49]+0.018*[# 100]+0.015*[# 194]+0.013*[# 181]+0.011*[# 262]+
          +0.009*[# 197]+0.005*[#   8]+0.005*[#  21]+0.005*[#  34]+0.005*[#  47]+
          +0.005*[#   7]+0.005*[#  20]+0.005*[#  33]+0.005*[#  46]+0.005*[#  61]+
          +0.004*[# 112]+0.004*[# 125]+0.004*[# 138]+0.004*[# 151]+0.004*[# 158]+
          +0.004*[# 111]+0.004*[# 124]+0.004*[# 137]+0.004*[# 150]+0.003*[#  53]+
          +0.003*[#  92]+0.002*[# 204]+0.002*[# 217]+0.002*[# 218]+0.002*[# 219]+
          +0.002*[# 230]+0.002*[# 231]+0.002*[# 232]+0.002*[# 243]+0.002*[# 244]+
          +0.002*[# 245]+0.002*[# 256]+0.002*[# 257]+0.002*[# 258]+0.002*[# 201]+
          +0.001*[# 117]+0.001*[# 130]+0.001*[# 143]+0.001*[# 156]+0.001*[# 221]+
          +0.001*[# 234]+0.001*[# 247]+0.001*[# 260]+
    |psi|^2 = 0.998
     e =     0.54790 eV
     psi = 0.071*[# 116]+0.070*[# 129]+0.057*[# 155]+0.056*[# 142]+0.048*[#  88]+
          +0.048*[#  62]+0.047*[#  75]+0.046*[# 101]+0.041*[# 192]+0.039*[# 179]+
          +0.036*[# 119]+0.036*[# 132]+0.035*[# 106]+0.035*[# 145]+0.035*[# 166]+
          +0.031*[# 205]+0.024*[# 202]+0.023*[# 163]+0.022*[# 176]+0.022*[# 189]+
          +0.016*[#  59]+0.016*[#  85]+0.016*[#  72]+0.016*[#  98]+0.008*[#  22]+
          +0.008*[#   9]+0.007*[#  35]+0.007*[#  48]+0.006*[# 230]+0.006*[# 217]+
          +0.006*[# 263]+0.004*[# 243]+0.004*[# 256]+0.003*[#  38]+0.003*[#  51]+
          +0.003*[# 105]+0.003*[# 118]+0.003*[# 131]+0.003*[# 144]+0.002*[# 139]+
          +0.002*[# 152]+0.002*[#  12]+0.002*[#  25]+0.001*[# 113]+0.001*[# 126]+
          +0.001*[# 160]+0.001*[# 186]+0.001*[# 199]+
    |psi|^2 = 0.998
     e =     0.54886 eV
     psi = 0.064*[# 129]+0.064*[# 142]+0.063*[# 116]+0.063*[# 155]+0.048*[#  63]+
          +0.048*[#  76]+0.048*[#  89]+0.047*[# 102]+0.040*[# 193]+0.039*[# 106]+
          +0.038*[# 119]+0.038*[# 180]+0.034*[# 167]+0.033*[# 145]+0.033*[# 132]+
          +0.031*[# 206]+0.024*[# 203]+0.024*[# 164]+0.024*[# 190]+0.022*[# 177]+
          +0.016*[#  60]+0.016*[#  73]+0.016*[#  86]+0.016*[#  99]+0.009*[#   9]+
          +0.009*[#  22]+0.007*[#  48]+0.006*[#  35]+0.006*[# 217]+0.006*[# 230]+
          +0.006*[# 264]+0.004*[# 243]+0.004*[# 256]+0.003*[# 105]+0.003*[# 118]+
          +0.003*[# 139]+0.003*[# 152]+0.003*[# 131]+0.003*[# 144]+0.002*[#  12]+
          +0.002*[#  25]+0.002*[#  38]+0.002*[#  51]+0.001*[#   6]+0.001*[#  19]+
          +0.001*[# 161]+0.001*[# 174]+0.001*[# 187]+0.001*[# 200]+
    |psi|^2 = 0.998
     e =     0.60073 eV
     psi = 0.092*[# 113]+0.092*[# 126]+0.089*[# 139]+0.089*[# 152]+0.062*[# 178]+
          +0.054*[# 191]+0.046*[# 165]+0.040*[# 204]+0.032*[#  87]+0.032*[#  74]+
          +0.027*[#  61]+0.024*[# 100]+0.016*[#  84]+0.016*[#  71]+0.015*[#  97]+
          +0.015*[# 188]+0.015*[#  58]+0.014*[# 201]+0.012*[# 175]+0.011*[# 162]+
          +0.009*[#  90]+0.009*[# 207]+0.009*[# 194]+0.008*[# 142]+0.008*[# 155]+
          +0.007*[# 103]+0.006*[# 243]+0.006*[# 256]+0.005*[# 217]+0.005*[# 230]+
          +0.005*[# 116]+0.005*[# 129]+0.005*[# 106]+0.005*[# 119]+0.004*[#   2]+
          +0.004*[#  15]+0.004*[#  28]+0.004*[#  41]+0.004*[# 181]+0.004*[# 168]+
          +0.003*[#  64]+0.003*[# 132]+0.003*[# 145]+0.003*[# 220]+0.003*[# 233]+
          +0.003*[# 246]+0.003*[# 259]+0.003*[# 236]+0.003*[# 249]+0.003*[# 210]+
          +0.003*[# 223]+0.002*[#  12]+0.002*[#  25]+0.002*[# 158]+0.002*[#  35]+
          +0.002*[#  38]+0.002*[#  48]+0.002*[#  51]+0.002*[#  77]+0.002*[# 261]+
          +0.001*[#   9]+0.001*[#  22]+0.001*[#  54]+0.001*[# 171]+0.001*[# 214]+
          +0.001*[# 218]+0.001*[# 227]+0.001*[# 231]+0.001*[# 240]+0.001*[# 253]+
          +0.001*[# 105]+0.001*[# 118]+0.001*[# 244]+0.001*[# 257]+
    |psi|^2 = 0.995
     e =     0.60561 eV
     psi = 0.081*[# 103]+0.078*[# 207]+0.064*[# 142]+0.064*[# 155]+0.061*[# 194]+
          +0.055*[# 116]+0.054*[# 129]+0.049*[#  90]+0.047*[# 181]+0.040*[#  77]+
          +0.033*[# 168]+0.029*[# 246]+0.029*[# 259]+0.028*[# 220]+0.028*[# 233]+
          +0.022*[#  12]+0.022*[#  25]+0.020*[#  38]+0.020*[#  51]+0.019*[#  64]+
          +0.010*[# 139]+0.010*[# 152]+0.010*[# 113]+0.010*[# 126]+0.008*[# 191]+
          +0.004*[#  87]+0.004*[# 178]+0.004*[# 165]+0.004*[# 175]+0.003*[# 204]+
          +0.003*[#  80]+0.003*[#  67]+0.003*[#  71]+0.002*[#  58]+0.002*[#  61]+
          +0.002*[#  74]+0.002*[#  84]+0.002*[#  97]+0.002*[# 100]+0.002*[# 162]+
          +0.002*[#  10]+0.002*[#  23]+0.002*[#  36]+0.002*[#  49]+0.002*[# 218]+
          +0.002*[# 231]+0.002*[# 244]+0.002*[# 257]+0.002*[# 201]+0.002*[# 111]+
          +0.002*[# 124]+0.002*[# 137]+0.002*[# 150]+0.002*[# 184]+0.002*[# 219]+
          +0.002*[# 232]+0.001*[# 245]+0.001*[# 258]+0.001*[#  11]+0.001*[#  24]+
          +0.001*[#  37]+0.001*[#  50]+0.001*[# 132]+0.001*[# 145]+
    |psi|^2 = 0.994
     e =     0.64465 eV
     psi = 0.071*[#  65]+0.071*[#  78]+0.070*[#  91]+0.070*[# 104]+0.068*[# 169]+
          +0.068*[# 195]+0.067*[# 182]+0.065*[# 208]+0.045*[# 113]+0.045*[# 126]+
          +0.042*[# 139]+0.042*[# 152]+0.021*[#  35]+0.021*[#  48]+0.020*[# 132]+
          +0.020*[# 145]+0.018*[#   9]+0.018*[#  22]+0.015*[# 243]+0.015*[# 256]+
          +0.015*[# 217]+0.015*[# 230]+0.014*[# 106]+0.014*[# 119]+0.006*[#   2]+
          +0.006*[#  15]+0.005*[#  28]+0.005*[#  41]+0.005*[# 236]+0.005*[# 249]+
          +0.005*[# 210]+0.005*[# 223]+0.003*[#  32]+0.003*[#  45]+0.003*[#   6]+
          +0.003*[#  19]+0.003*[# 240]+0.003*[# 253]+0.003*[# 214]+0.003*[# 227]+
    |psi|^2 = 0.999
     e =     0.68622 eV
     psi = 0.077*[# 181]+0.065*[# 197]+0.058*[# 194]+0.026*[#  93]+0.026*[# 100]+
          +0.026*[#  77]+0.023*[# 143]+0.023*[# 156]+0.023*[# 117]+0.023*[# 130]+
          +0.022*[# 165]+0.018*[# 262]+0.015*[#  90]+0.014*[# 158]+0.014*[# 111]+
          +0.014*[# 124]+0.014*[# 137]+0.014*[# 150]+0.013*[# 112]+0.013*[# 125]+
          +0.013*[# 138]+0.013*[# 151]+0.012*[# 204]+0.011*[# 219]+0.011*[# 232]+
          +0.010*[#  61]+0.010*[# 218]+0.010*[# 231]+0.010*[# 245]+0.010*[# 258]+
          +0.010*[# 244]+0.010*[# 257]+0.009*[# 221]+0.009*[# 234]+0.008*[# 247]+
          +0.008*[# 260]+0.007*[#  35]+0.007*[#  48]+0.007*[#   9]+0.007*[#  22]+
          +0.007*[# 215]+0.007*[# 228]+0.007*[#  71]+0.006*[#  84]+0.007*[# 241]+
          +0.007*[# 254]+0.006*[# 217]+0.006*[# 230]+0.006*[#  13]+0.006*[#  26]+
          +0.006*[#  39]+0.006*[#  52]+0.006*[# 243]+0.006*[# 256]+0.006*[#  58]+
          +0.006*[# 216]+0.006*[# 229]+0.006*[# 242]+0.006*[# 255]+0.005*[#  10]+
          +0.005*[#  23]+0.005*[#  36]+0.005*[#  49]+0.005*[#  11]+0.005*[#  24]+
          +0.005*[#  37]+0.005*[#  50]+0.005*[# 178]+0.005*[# 196]+0.004*[# 188]+
          +0.004*[# 191]+0.003*[# 175]+0.003*[#  28]+0.003*[#  41]+0.003*[#  67]+
          +0.003*[#   2]+0.003*[#  15]+0.003*[#  54]+0.003*[#  80]+0.003*[# 171]+
          +0.003*[# 157]+0.002*[# 184]+0.002*[#  92]+0.002*[# 162]+0.002*[# 261]+
          +0.002*[# 114]+0.002*[# 127]+0.002*[# 140]+0.002*[# 153]+0.002*[#  53]+
          +0.002*[# 115]+0.002*[# 128]+0.002*[# 141]+0.002*[# 154]+0.002*[# 236]+
          +0.002*[# 249]+0.001*[#   7]+0.001*[#  20]+0.001*[#  33]+0.001*[#  46]+
          +0.001*[# 210]+0.001*[# 223]+0.001*[#   8]+0.001*[#  21]+0.001*[#  34]+
          +0.001*[#  47]+0.001*[#  74]+0.001*[#  87]+0.001*[# 132]+0.001*[# 145]+
    |psi|^2 = 0.997
     e =     0.81393 eV
     psi = 0.107*[# 168]+0.075*[# 207]+0.066*[#  64]+0.035*[# 245]+0.035*[# 258]+
          +0.034*[# 218]+0.034*[# 231]+0.033*[# 184]+0.032*[# 171]+0.031*[# 219]+
          +0.031*[# 232]+0.028*[# 244]+0.028*[# 257]+0.026*[# 178]+0.024*[# 191]+
          +0.021*[# 265]+0.019*[# 266]+0.015*[# 138]+0.015*[# 151]+0.014*[# 112]+
          +0.014*[# 125]+0.013*[#  80]+0.013*[# 111]+0.013*[# 124]+0.013*[# 137]+
          +0.013*[# 150]+0.012*[#  67]+0.009*[#  90]+0.008*[#  77]+0.008*[#  11]+
          +0.008*[#  24]+0.008*[#  37]+0.008*[#  50]+0.008*[# 142]+0.008*[# 155]+
          +0.007*[#  10]+0.007*[#  23]+0.007*[#  36]+0.007*[#  49]+0.006*[#  12]+
          +0.006*[#  25]+0.005*[#  38]+0.005*[#  51]+0.005*[# 103]+0.005*[# 188]+
          +0.004*[# 175]+0.004*[# 116]+0.004*[# 129]+0.003*[# 141]+0.003*[# 154]+
          +0.003*[# 114]+0.002*[# 115]+0.003*[# 127]+0.003*[# 140]+0.003*[# 153]+
          +0.002*[# 128]+0.002*[#  66]+0.002*[#  79]+0.002*[# 179]+0.002*[# 263]+
          +0.002*[# 170]+0.002*[# 183]+0.002*[#   8]+0.002*[#  21]+0.001*[#   7]+
          +0.001*[#  20]+0.001*[#  33]+0.001*[#  34]+0.001*[#  46]+0.001*[#  47]+
          +0.001*[# 221]+0.001*[# 220]+0.001*[# 233]+0.001*[# 234]+
    |psi|^2 = 0.997
     e =     0.89614 eV
     psi = 0.095*[#  35]+0.095*[#  48]+0.093*[#   9]+0.093*[#  22]+0.082*[#  74]+
          +0.080*[#  87]+0.043*[#  61]+0.039*[# 100]+0.023*[# 165]+0.019*[#  97]+
          +0.018*[#   2]+0.018*[#  15]+0.018*[#  28]+0.018*[#  41]+0.017*[#  58]+
          +0.016*[#  84]+0.015*[#  71]+0.013*[# 204]+0.010*[# 110]+0.010*[# 123]+
          +0.010*[# 136]+0.010*[# 149]+0.008*[# 243]+0.008*[# 256]+0.007*[# 217]+
          +0.007*[# 230]+0.007*[#  32]+0.007*[#  45]+0.007*[#   6]+0.007*[#  19]+
          +0.007*[# 178]+0.006*[# 171]+0.006*[# 191]+0.005*[#  93]+0.005*[# 184]+
          +0.005*[# 143]+0.005*[# 156]+0.005*[# 158]+0.005*[# 262]+0.004*[# 117]+
          +0.004*[# 130]+0.002*[# 181]+0.002*[#  13]+0.002*[#  26]+0.002*[#  39]+
          +0.002*[#  52]+0.002*[# 194]+0.002*[#  54]+0.001*[# 139]+0.001*[# 152]+
          +0.001*[# 265]+
    |psi|^2 = 0.995
     e =     1.01093 eV
     psi = 0.069*[# 143]+0.069*[# 156]+0.066*[# 117]+0.066*[# 130]+0.057*[#  61]+
          +0.055*[#  13]+0.055*[#  26]+0.055*[#  39]+0.055*[#  52]+0.052*[# 262]+
          +0.039*[# 100]+0.020*[# 194]+0.020*[#  54]+0.020*[#  74]+0.019*[#  87]+
          +0.017*[# 181]+0.015*[# 162]+0.014*[# 247]+0.014*[# 260]+0.014*[#  67]+
          +0.014*[# 158]+0.013*[#  80]+0.010*[# 204]+0.007*[# 191]+0.007*[# 221]+
          +0.007*[# 234]+0.007*[#  93]+0.006*[# 178]+0.006*[# 201]+0.006*[# 217]+
          +0.006*[# 230]+0.004*[# 175]+0.004*[#  77]+0.004*[# 188]+0.004*[# 243]+
          +0.004*[# 245]+0.004*[# 256]+0.004*[# 258]+0.003*[# 244]+0.003*[# 257]+
          +0.002*[# 138]+0.002*[# 151]+0.002*[# 112]+0.002*[# 125]+0.002*[# 218]+
          +0.002*[# 219]+0.002*[# 231]+0.002*[# 232]+0.002*[# 150]+0.002*[# 214]+
          +0.002*[# 227]+0.002*[# 265]+0.002*[# 111]+0.002*[# 124]+0.002*[# 137]+
          +0.002*[# 261]+0.002*[# 141]+0.002*[# 154]+0.002*[# 171]+0.002*[# 266]+
          +0.001*[# 197]+0.001*[# 115]+0.001*[# 128]+0.001*[# 240]+0.001*[# 253]+
          +0.001*[#   9]+0.001*[#  22]+0.001*[# 114]+0.001*[# 127]+0.001*[# 140]+
          +0.001*[# 153]+0.001*[# 184]+0.001*[# 216]+0.001*[# 229]+
    |psi|^2 = 0.998
     e =     1.14206 eV
     psi = 0.102*[#  25]+0.102*[#  38]+0.096*[#  12]+0.096*[#  51]+0.044*[#  60]+
          +0.044*[#  73]+0.044*[#  86]+0.044*[#  99]+0.039*[#  76]+0.039*[#  63]+
          +0.038*[#  89]+0.038*[#  41]+0.038*[# 102]+0.037*[#   2]+0.035*[#  28]+
          +0.035*[#  15]+0.012*[# 152]+0.011*[# 113]+0.011*[# 139]+0.011*[# 126]+
          +0.003*[# 164]+0.003*[# 177]+0.003*[# 190]+0.003*[# 203]+0.002*[# 217]+
          +0.002*[# 129]+0.002*[# 142]+0.002*[# 230]+0.002*[# 116]+0.002*[# 155]+
          +0.002*[# 256]+0.002*[# 243]+0.002*[#   1]+0.002*[#  40]+0.002*[#  57]+
          +0.002*[#  70]+0.002*[#  83]+0.002*[#  96]+0.002*[# 106]+0.002*[# 145]+
          +0.002*[#   9]+0.002*[# 119]+0.002*[# 132]+0.002*[#  14]+0.002*[#  22]+
          +0.002*[#  27]+0.002*[# 167]+0.001*[#   6]+0.001*[#  32]+0.002*[#  45]+
          +0.002*[#  48]+0.002*[# 206]+0.001*[#  19]+0.001*[#  35]+0.001*[# 180]+
          +0.001*[# 105]+0.001*[# 118]+0.001*[# 131]+0.001*[# 144]+0.001*[# 193]+
    |psi|^2 = 0.998
     e =     1.14207 eV
     psi = 0.103*[#  12]+0.102*[#  51]+0.096*[#  25]+0.096*[#  38]+0.044*[#  59]+
          +0.044*[#  72]+0.044*[#  85]+0.044*[#  98]+0.039*[#  88]+0.039*[#  62]+
          +0.038*[#  75]+0.038*[#  28]+0.037*[# 101]+0.037*[#  15]+0.035*[#  41]+
          +0.035*[#   2]+0.012*[# 139]+0.012*[# 126]+0.011*[# 152]+0.011*[# 113]+
          +0.003*[# 189]+0.003*[# 163]+0.003*[# 176]+0.003*[# 202]+0.002*[# 116]+
          +0.002*[# 155]+0.002*[# 243]+0.002*[# 129]+0.002*[# 142]+0.002*[# 230]+
          +0.002*[# 256]+0.002*[# 217]+0.002*[#  14]+0.002*[#  27]+0.002*[#  56]+
          +0.002*[#  69]+0.002*[#  82]+0.002*[#  95]+0.002*[# 119]+0.002*[# 132]+
          +0.002*[#   1]+0.002*[#  35]+0.002*[#  40]+0.002*[# 106]+0.002*[# 145]+
          +0.001*[#   9]+0.001*[#  19]+0.002*[#  22]+0.002*[#  48]+0.002*[# 166]+
          +0.001*[#  32]+0.002*[# 205]+0.001*[#   6]+0.001*[#  45]+0.001*[# 105]+
          +0.001*[# 118]+0.001*[# 131]+0.001*[# 179]+0.001*[# 144]+0.001*[# 192]+
    |psi|^2 = 0.998
     e =     1.16946 eV
     psi = 0.079*[# 246]+0.079*[# 259]+0.077*[# 168]+0.071*[#  38]+0.071*[#  51]+
          +0.068*[#  12]+0.068*[#  25]+0.064*[# 220]+0.064*[# 233]+0.059*[# 103]+
          +0.050*[# 181]+0.050*[#  90]+0.049*[#  77]+0.044*[# 194]+0.040*[#  64]+
          +0.023*[# 207]+0.002*[# 191]+0.002*[# 221]+0.002*[# 234]+0.002*[# 266]+
          +0.002*[# 179]+0.002*[# 265]+0.001*[# 178]+0.001*[# 171]+0.001*[# 184]+
    |psi|^2 = 0.994
     e =     1.43820 eV
     psi = 0.088*[# 195]+0.088*[# 169]+0.087*[# 182]+0.084*[# 208]+0.078*[#  65]+
          +0.077*[#  91]+0.076*[#  78]+0.075*[# 104]+0.029*[#   9]+0.029*[#  22]+
          +0.028*[#  35]+0.028*[#  48]+0.028*[# 217]+0.028*[# 230]+0.024*[# 243]+
          +0.024*[# 256]+0.015*[# 110]+0.015*[# 123]+0.015*[# 136]+0.015*[# 149]+
          +0.007*[# 236]+0.007*[# 249]+0.006*[# 210]+0.006*[#   2]+0.006*[#  15]+
          +0.006*[# 223]+0.006*[#  28]+0.006*[#  41]+0.003*[# 240]+0.003*[# 253]+
          +0.002*[#   6]+0.002*[#  19]+0.002*[#  32]+0.002*[#  45]+0.002*[# 214]+
          +0.002*[# 227]+
    |psi|^2 = 0.999
     e =     1.63013 eV
     psi = 0.160*[# 192]+0.080*[# 232]+0.079*[# 219]+0.059*[# 263]+0.057*[# 245]+
          +0.057*[# 258]+0.045*[# 166]+0.027*[# 234]+0.027*[# 221]+0.027*[# 220]+
          +0.026*[# 233]+0.025*[# 259]+0.025*[# 246]+0.021*[# 189]+0.017*[# 163]+
          +0.016*[# 101]+0.015*[# 205]+0.012*[# 247]+0.012*[# 260]+0.008*[# 210]+
          +0.008*[# 223]+0.008*[# 178]+0.007*[# 113]+0.007*[# 126]+0.006*[# 139]+
          +0.006*[# 152]+0.006*[# 217]+0.006*[# 230]+0.006*[#  39]+0.006*[#  52]+
          +0.005*[#  75]+0.005*[# 244]+0.005*[# 257]+0.005*[# 176]+0.005*[#   9]+
          +0.005*[#  11]+0.005*[#  22]+0.005*[#  24]+0.005*[# 143]+0.005*[# 156]+
          +0.004*[#  35]+0.004*[#  48]+0.004*[#  12]+0.004*[#  25]+0.004*[# 236]+
          +0.004*[# 249]+0.003*[# 179]+0.003*[# 202]+0.003*[# 240]+0.003*[# 253]+
          +0.003*[#  37]+0.003*[#  50]+0.002*[#  13]+0.002*[#  26]+0.002*[#  88]+
          +0.002*[# 214]+0.002*[# 227]+0.002*[# 218]+0.002*[# 231]+0.001*[#  59]+
          +0.001*[# 116]+0.001*[# 129]+0.001*[#  87]+0.001*[# 168]+0.001*[#  85]+
    |psi|^2 = 0.998
     e =     1.67397 eV
     psi = 0.159*[# 180]+0.076*[# 218]+0.076*[# 231]+0.064*[# 257]+0.064*[# 244]+
          +0.056*[# 264]+0.053*[# 167]+0.026*[# 220]+0.026*[# 233]+0.023*[# 246]+
          +0.023*[# 259]+0.022*[# 102]+0.020*[# 247]+0.021*[# 260]+0.020*[# 177]+
          +0.020*[# 206]+0.019*[# 221]+0.019*[# 234]+0.015*[# 164]+0.009*[#  36]+
          +0.010*[#  49]+0.009*[#  23]+0.009*[#  89]+0.009*[#  10]+0.007*[# 113]+
          +0.007*[# 126]+0.006*[# 139]+0.006*[# 152]+0.006*[# 210]+0.006*[# 223]+
          +0.005*[# 236]+0.005*[# 249]+0.005*[#  76]+0.005*[#  35]+0.005*[#  48]+
          +0.005*[# 190]+0.004*[#   9]+0.004*[#  22]+0.004*[# 219]+0.004*[# 232]+
          +0.003*[# 243]+0.003*[# 256]+0.003*[# 193]+0.003*[# 203]+0.002*[# 214]+
          +0.002*[# 217]+0.002*[# 227]+0.002*[# 230]+0.002*[# 245]+0.003*[# 258]+
          +0.002*[# 117]+0.002*[# 130]+0.002*[# 143]+0.002*[# 156]+0.002*[# 240]+
          +0.002*[# 253]+0.002*[#  60]+0.002*[#  73]+0.001*[#  12]+0.001*[#  25]+
          +0.001*[#  38]+0.001*[#  51]+
    |psi|^2 = 0.998
     e =     1.73398 eV
     psi = 0.138*[# 193]+0.080*[#  23]+0.080*[#  49]+0.080*[#  10]+0.080*[#  36]+
          +0.077*[#  63]+0.057*[#  89]+0.041*[#  76]+0.034*[# 167]+0.026*[# 102]+
          +0.026*[# 264]+0.024*[# 234]+0.022*[# 247]+0.020*[# 206]+0.020*[# 221]+
          +0.019*[# 260]+0.009*[# 220]+0.008*[# 259]+0.008*[# 233]+0.007*[# 246]+
          +0.006*[#  99]+0.005*[# 143]+0.005*[#  86]+0.004*[# 117]+0.004*[# 190]+
          +0.004*[# 215]+0.004*[# 241]+0.004*[# 228]+0.004*[# 254]+0.004*[# 130]+
          +0.003*[# 177]+0.003*[# 126]+0.003*[# 139]+0.003*[# 156]+0.003*[# 113]+
          +0.003*[# 152]+0.003*[# 111]+0.003*[# 124]+0.003*[# 137]+0.003*[# 150]+
          +0.003*[# 203]+0.002*[# 219]+0.002*[#  35]+0.002*[# 257]+0.002*[#   7]+
          +0.002*[#  20]+0.002*[#  33]+0.002*[#  46]+0.002*[#  48]+0.002*[# 164]+
          +0.002*[#  22]+0.002*[# 218]+0.002*[# 223]+0.002*[# 231]+0.002*[#   9]+
          +0.002*[# 232]+0.002*[# 236]+0.002*[#  73]+0.002*[# 244]+0.002*[# 258]+
          +0.002*[# 249]+0.002*[# 114]+0.002*[# 140]+0.002*[# 210]+0.001*[# 127]+
          +0.002*[# 153]+0.001*[#  60]+0.001*[# 227]+0.001*[# 245]+
    |psi|^2 = 0.998
     e =     1.73511 eV
     psi = 0.087*[# 179]+0.080*[#  37]+0.080*[#  50]+0.076*[#  11]+0.076*[#  24]+
          +0.066*[#  62]+0.054*[#  75]+0.043*[#  88]+0.034*[# 101]+0.034*[# 166]+
          +0.029*[#  52]+0.028*[#  39]+0.022*[# 205]+0.021*[#  26]+0.020*[#  13]+
          +0.018*[# 156]+0.016*[# 143]+0.016*[# 221]+0.012*[# 234]+0.011*[# 263]+
          +0.010*[# 260]+0.009*[# 178]+0.007*[# 247]+0.007*[# 245]+0.006*[# 258]+
          +0.006*[# 246]+0.004*[#  98]+0.004*[# 259]+0.004*[# 216]+0.004*[# 229]+
          +0.004*[# 232]+0.004*[#  72]+0.004*[# 233]+0.003*[# 204]+0.003*[# 219]+
          +0.003*[# 130]+0.003*[# 138]+0.003*[# 151]+0.003*[# 192]+0.003*[# 244]+
          +0.003*[#  97]+0.003*[#  71]+0.002*[# 220]+0.002*[# 257]+0.002*[#   8]+
          +0.002*[#  21]+0.002*[#  58]+0.002*[# 117]+0.002*[# 176]+0.002*[#  34]+
          +0.002*[#  47]+0.002*[#  85]+0.002*[# 112]+0.002*[# 125]+0.002*[#  59]+
[...]
          +0.003*[# 228]+0.003*[#  11]+0.003*[#  24]+0.003*[# 241]+0.003*[# 254]+
          +0.002*[# 114]+0.002*[# 127]+0.002*[#  28]+0.002*[#  41]+0.002*[#   2]+
          +0.002*[#  15]+0.002*[#  37]+0.002*[#  50]+0.002*[#  97]+0.002*[# 116]+
          +0.002*[# 129]+0.002*[# 192]+0.002*[#  72]+0.001*[#  76]+0.001*[#  86]+
          +0.001*[#  34]+0.001*[#  47]+0.001*[#  78]+0.001*[#  99]+0.001*[# 142]+
          +0.001*[# 155]+
    |psi|^2 = 0.998
     e =     7.76587 eV
     psi = 0.069*[# 179]+0.048*[# 166]+0.047*[# 221]+0.047*[# 234]+0.041*[# 141]+
          +0.041*[# 154]+0.039*[#  78]+0.036*[#  75]+0.026*[# 206]+0.023*[# 205]+
          +0.019*[# 100]+0.017*[# 114]+0.017*[# 127]+0.017*[# 192]+0.016*[#  62]+
          +0.015*[# 191]+0.014*[#  90]+0.013*[#  38]+0.013*[#  51]+0.012*[# 266]+
          +0.012*[# 140]+0.012*[# 153]+0.011*[# 204]+0.011*[# 245]+0.011*[# 258]+
          +0.010*[#  13]+0.010*[#  26]+0.010*[#  89]+0.008*[# 182]+0.008*[# 265]+
          +0.008*[#  88]+0.007*[# 101]+0.007*[#  34]+0.007*[#  47]+0.007*[# 214]+
          +0.007*[# 227]+0.007*[# 240]+0.007*[# 253]+0.006*[# 193]+0.005*[#   7]+
          +0.005*[#  20]+0.005*[# 247]+0.005*[# 260]+0.005*[#  10]+0.005*[#  23]+
          +0.005*[#  28]+0.005*[#  41]+0.005*[# 263]+0.005*[# 262]+0.005*[# 117]+
          +0.005*[# 130]+0.005*[# 188]+0.005*[# 165]+0.004*[# 103]+0.004*[# 210]+
          +0.004*[# 223]+0.004*[# 242]+0.004*[# 255]+0.004*[# 264]+0.004*[#  97]+
          +0.004*[# 115]+0.004*[# 128]+0.004*[#  99]+0.004*[#  59]+0.004*[# 178]+
          +0.003*[#  37]+0.003*[#  50]+0.003*[# 236]+0.003*[# 243]+0.003*[# 249]+
          +0.003*[# 256]+0.003*[#   6]+0.003*[#  19]+0.003*[#  86]+0.003*[# 169]+
          +0.003*[#  32]+0.003*[#  39]+0.003*[#  45]+0.003*[#  52]+0.003*[#  91]+
          +0.003*[# 217]+0.003*[# 230]+0.003*[# 113]+0.003*[# 126]+0.002*[#   8]+
          +0.002*[#  21]+0.002*[# 220]+0.002*[# 233]+0.002*[#  65]+0.002*[# 142]+
          +0.002*[# 155]+0.002*[# 216]+0.002*[# 139]+0.002*[# 152]+0.002*[# 229]+
          +0.002*[#  11]+0.002*[#  24]+0.002*[# 244]+0.002*[# 257]+0.001*[#  87]+
          +0.001*[# 102]+0.002*[# 201]+0.001*[# 241]+0.001*[# 254]+0.001*[#  33]+
          +0.001*[#  46]+0.001*[# 104]+0.001*[# 207]+0.001*[# 215]+0.001*[# 228]+
          +0.001*[#   2]+0.001*[#  15]+0.001*[#  36]+0.001*[#  49]+0.001*[# 136]+
          +0.001*[# 143]+0.001*[# 149]+0.001*[# 156]+0.001*[# 208]+
    |psi|^2 = 0.996
     e =     7.90444 eV
     psi = 0.095*[# 205]+0.062*[# 247]+0.062*[# 260]+0.036*[# 115]+0.036*[# 128]+
          +0.029*[#  88]+0.029*[# 264]+0.028*[# 165]+0.027*[#  91]+0.024*[# 192]+
          +0.023*[# 101]+0.022*[# 262]+0.015*[# 221]+0.015*[# 234]+0.014*[# 140]+
          +0.014*[# 153]+0.012*[# 141]+0.012*[# 154]+0.012*[# 195]+0.011*[#  76]+
          +0.011*[# 265]+0.010*[# 218]+0.010*[# 231]+0.010*[#  39]+0.010*[#  52]+
          +0.009*[#  78]+0.009*[# 261]+0.009*[#  61]+0.009*[# 178]+0.007*[# 244]+
          +0.007*[# 257]+0.007*[#  12]+0.007*[#  25]+0.007*[# 219]+0.007*[# 232]+
          +0.007*[#  75]+0.006*[#  32]+0.006*[#  45]+0.006*[# 166]+0.006*[#  89]+
          +0.006*[# 216]+0.006*[# 229]+0.006*[# 245]+0.006*[# 258]+0.006*[#   8]+
          +0.006*[#  21]+0.006*[# 206]+0.006*[# 175]+0.005*[# 179]+0.005*[# 182]+
          +0.005*[# 193]+0.005*[#  10]+0.005*[#  23]+0.004*[#  62]+0.004*[#   2]+
          +0.004*[#  15]+0.004*[#  33]+0.004*[#  46]+0.004*[# 181]+0.004*[#  60]+
          +0.004*[# 100]+0.004*[# 243]+0.004*[# 256]+0.003*[#  58]+0.004*[# 202]+
          +0.003*[# 217]+0.003*[# 230]+0.003*[# 246]+0.003*[# 259]+0.003*[#  13]+
          +0.003*[#  26]+0.003*[# 168]+0.003*[# 204]+0.003*[# 266]+0.003*[#  63]+
          +0.003*[# 117]+0.003*[# 130]+0.003*[# 263]+0.003*[# 214]+0.003*[# 227]+
          +0.003*[#  36]+0.003*[#  49]+0.003*[#  90]+0.002*[#  38]+0.002*[#  51]+
          +0.002*[#  73]+0.002*[# 241]+0.002*[# 254]+0.002*[#   6]+0.002*[#  11]+
          +0.002*[#  19]+0.002*[#  24]+0.002*[# 143]+0.002*[# 156]+0.002*[# 240]+
          +0.002*[# 253]+0.002*[#  37]+0.002*[#  50]+0.002*[# 142]+0.002*[# 155]+
          +0.002*[# 210]+0.002*[# 223]+0.002*[# 191]+0.001*[# 102]+0.001*[# 110]+
          +0.001*[# 123]+0.001*[# 139]+0.001*[# 152]+0.001*[#  28]+0.001*[#  41]+
          +0.001*[# 208]+0.001*[# 215]+0.001*[# 228]+0.001*[# 236]+0.001*[# 249]+
          +0.001*[#   7]+0.001*[#  20]+0.001*[#  97]+0.001*[# 114]+0.001*[# 127]+
          +0.001*[# 103]+
    |psi|^2 = 0.995
     e =     8.50503 eV
     psi = 0.055*[# 208]+0.051*[#  32]+0.051*[#  45]+0.038*[# 165]+0.037*[# 262]+
          +0.035*[# 104]+0.032*[#   6]+0.032*[#  19]+0.031*[#  61]+0.031*[# 178]+
          +0.030*[#  74]+0.021*[#  91]+0.015*[# 189]+0.015*[# 141]+0.015*[# 154]+
          +0.013*[#  88]+0.012*[# 158]+0.012*[# 218]+0.012*[# 231]+0.012*[# 265]+
          +0.011*[# 115]+0.011*[# 128]+0.011*[# 101]+0.010*[# 244]+0.010*[# 257]+
          +0.010*[# 264]+0.009*[#  10]+0.009*[#  23]+0.009*[# 195]+0.009*[# 219]+
          +0.009*[# 232]+0.008*[#  63]+0.008*[# 136]+0.008*[# 149]+0.007*[#  37]+
          +0.007*[#  50]+0.007*[# 140]+0.007*[# 153]+0.007*[# 240]+0.007*[# 253]+
          +0.007*[# 221]+0.007*[# 234]+0.006*[#  39]+0.006*[#  52]+0.006*[#  36]+
          +0.006*[#  49]+0.006*[# 245]+0.006*[# 258]+0.006*[#  11]+0.006*[#  24]+
          +0.006*[# 123]+0.006*[# 177]+0.006*[# 110]+0.005*[# 143]+0.005*[# 156]+
          +0.005*[#   8]+0.005*[#  21]+0.004*[# 114]+0.004*[# 127]+0.004*[# 261]+
          +0.004*[#  33]+0.004*[#   7]+0.004*[#  20]+0.004*[#  46]+0.004*[# 243]+
          +0.004*[# 256]+0.004*[#  54]+0.004*[# 168]+0.004*[#   2]+0.003*[#  15]+
          +0.003*[# 169]+0.003*[# 260]+0.003*[#  71]+0.003*[# 247]+0.003*[#  67]+
          +0.003*[# 180]+0.003*[#  75]+0.003*[# 202]+0.003*[# 214]+0.003*[# 227]+
          +0.002*[#  62]+0.003*[# 102]+0.002*[#  85]+0.002*[# 217]+0.002*[# 230]+
          +0.002*[# 242]+0.002*[# 255]+0.002*[#  28]+0.002*[#  41]+0.002*[# 171]+
          +0.002*[#  89]+0.002*[# 263]+0.002*[#  76]+0.002*[#  77]+0.002*[# 216]+
          +0.002*[# 229]+0.001*[#  35]+0.001*[#  48]+0.001*[#  64]+0.001*[# 190]+
          +0.001*[# 246]+0.001*[#  98]+0.001*[# 259]+0.001*[#  65]+0.001*[#  34]+
          +0.001*[#  47]+0.001*[#  73]+0.001*[# 112]+0.001*[# 125]+
    |psi|^2 = 0.985
     e =     8.51572 eV
     psi = 0.049*[#  19]+0.049*[#   6]+0.045*[# 169]+0.042*[# 191]+0.034*[# 204]+
          +0.033*[#  65]+0.031*[#  87]+0.028*[# 263]+0.027*[#  32]+0.027*[#  45]+
          +0.026*[# 100]+0.026*[# 240]+0.026*[# 253]+0.022*[#  78]+0.020*[# 214]+
          +0.020*[# 227]+0.018*[# 266]+0.017*[# 128]+0.017*[# 115]+0.013*[# 247]+
          +0.013*[# 260]+0.011*[# 244]+0.011*[# 141]+0.011*[# 154]+0.011*[# 257]+
          +0.011*[# 102]+0.010*[#  36]+0.010*[#  49]+0.010*[# 182]+0.009*[#  75]+
          +0.008*[# 110]+0.008*[# 123]+0.008*[# 176]+0.007*[# 218]+0.008*[# 231]+
          +0.007*[# 206]+0.006*[#  11]+0.006*[#  24]+0.006*[#  10]+0.006*[#  23]+
          +0.006*[# 193]+0.006*[# 221]+0.006*[# 234]+0.006*[# 114]+0.006*[# 127]+
          +0.006*[# 215]+0.006*[# 228]+0.005*[#  93]+0.005*[# 166]+0.005*[# 136]+
          +0.005*[# 149]+0.005*[# 241]+0.005*[# 254]+0.004*[#  13]+0.004*[#  26]+
          +0.004*[# 163]+0.004*[# 245]+0.004*[#  34]+0.004*[# 258]+0.004*[#  37]+
          +0.004*[#  47]+0.004*[#  50]+0.004*[# 194]+0.004*[# 197]+0.004*[# 117]+
          +0.004*[# 130]+0.004*[# 190]+0.004*[# 208]+0.003*[#  62]+0.003*[# 201]+
          +0.003*[#  84]+0.003*[#  33]+0.003*[#  46]+0.003*[#  80]+0.003*[#  28]+
          +0.003*[#  41]+0.003*[#  88]+0.003*[# 140]+0.003*[# 153]+0.003*[# 262]+
          +0.002*[#   7]+0.002*[#  20]+0.002*[#  72]+0.002*[# 101]+0.002*[#   2]+
          +0.002*[#  15]+0.002*[# 103]+0.002*[# 165]+0.002*[# 220]+0.002*[# 233]+
          +0.002*[# 219]+0.002*[# 232]+0.002*[# 184]+0.002*[#  63]+0.002*[# 210]+
          +0.002*[# 223]+0.001*[#  89]+0.001*[# 236]+0.001*[# 249]+0.001*[#   8]+
          +0.001*[#   9]+0.001*[#  21]+0.001*[#  22]+0.001*[# 261]+0.001*[# 104]+
          +0.001*[# 207]+0.001*[# 189]+
    |psi|^2 = 0.994
     e =     8.59982 eV
     psi = 0.049*[# 195]+0.042*[# 101]+0.040*[#  88]+0.030*[#  63]+0.029*[#  76]+
          +0.022*[# 261]+0.020*[# 205]+0.019*[# 117]+0.019*[# 130]+0.018*[#   6]+
          +0.018*[#  19]+0.018*[# 214]+0.018*[# 227]+0.017*[# 178]+0.016*[# 164]+
          +0.016*[# 265]+0.016*[#  13]+0.016*[#  26]+0.015*[# 114]+0.015*[# 127]+
          +0.015*[# 221]+0.015*[# 234]+0.014*[#  34]+0.014*[#  47]+0.013*[# 177]+
          +0.013*[# 208]+0.012*[# 247]+0.012*[# 260]+0.011*[# 245]+0.011*[# 258]+
          +0.010*[# 240]+0.010*[# 253]+0.010*[# 143]+0.010*[# 156]+0.010*[#  58]+
          +0.008*[#  39]+0.008*[#  52]+0.008*[#  71]+0.008*[# 218]+0.008*[# 231]+
          +0.008*[#  32]+0.008*[#  45]+0.008*[# 140]+0.008*[# 153]+0.008*[#   8]+
          +0.008*[#  21]+0.008*[#  91]+0.007*[# 192]+0.007*[# 219]+0.007*[# 232]+
          +0.007*[# 262]+0.007*[# 244]+0.007*[# 257]+0.006*[# 246]+0.006*[# 259]+
          +0.006*[#  28]+0.006*[#  41]+0.005*[# 175]+0.005*[# 115]+0.005*[# 128]+
          +0.005*[# 171]+0.005*[#  74]+0.005*[#  61]+0.004*[# 241]+0.004*[# 254]+
          +0.004*[#  36]+0.004*[#  49]+0.004*[#  10]+0.004*[#   2]+0.004*[#   7]+
          +0.004*[#  15]+0.004*[#  20]+0.004*[#  23]+0.004*[# 236]+0.004*[# 249]+
          +0.003*[#  11]+0.003*[#  24]+0.003*[# 111]+0.003*[# 124]+0.003*[# 182]+
          +0.003*[# 141]+0.003*[# 142]+0.003*[# 154]+0.003*[# 155]+0.003*[#  37]+
          +0.003*[#  50]+0.003*[#  77]+0.003*[# 191]+0.003*[#  33]+0.003*[#  46]+
          +0.003*[# 110]+0.003*[# 123]+0.003*[# 202]+0.002*[# 220]+0.002*[# 233]+
          +0.002*[#  98]+0.002*[# 210]+0.002*[# 215]+0.002*[# 223]+0.002*[# 228]+
          +0.002*[# 104]+0.002*[# 132]+0.002*[# 136]+0.002*[# 137]+0.002*[# 145]+
          +0.002*[# 149]+0.002*[# 138]+0.002*[# 150]+0.002*[# 151]+0.002*[# 179]+
          +0.001*[#  62]+0.001*[#  67]+0.001*[#  89]+0.001*[# 116]+0.001*[# 129]+
          +0.001*[# 266]+0.001*[# 100]+0.001*[# 189]+0.001*[#  78]+0.001*[#  87]+
          +0.001*[# 112]+0.001*[# 125]+0.001*[# 204]+0.001*[# 242]+
    |psi|^2 = 0.995
     e =     8.80678 eV
     psi = 0.054*[#  62]+0.043*[#  75]+0.034*[# 266]+0.032*[# 179]+0.029*[# 182]+
          +0.028*[#  89]+0.025*[# 102]+0.023*[# 143]+0.023*[# 156]+0.020*[#  32]+
          +0.020*[#  45]+0.020*[# 247]+0.020*[# 260]+0.020*[# 191]+0.019*[# 214]+
          +0.019*[# 227]+0.018*[# 117]+0.018*[# 130]+0.017*[# 166]+0.014*[#  84]+
          +0.014*[#  39]+0.014*[#  52]+0.013*[#   8]+0.013*[#  21]+0.012*[#  97]+
          +0.011*[# 206]+0.011*[# 203]+0.011*[# 240]+0.011*[# 253]+0.010*[#  13]+
          +0.010*[#  26]+0.009*[#  34]+0.009*[#  47]+0.009*[#   6]+0.009*[#  19]+
          +0.008*[# 188]+0.008*[# 221]+0.008*[# 234]+0.008*[# 163]+0.007*[# 218]+
          +0.007*[# 231]+0.007*[# 219]+0.007*[# 232]+0.006*[#   2]+0.006*[#  15]+
          +0.006*[# 216]+0.006*[# 229]+0.006*[# 210]+0.006*[# 223]+0.005*[#  28]+
          +0.005*[#  41]+0.005*[# 190]+0.005*[# 169]+0.005*[# 244]+0.005*[# 257]+
          +0.005*[#  10]+0.005*[#  23]+0.005*[#  36]+0.005*[#  37]+0.005*[#  49]+
          +0.005*[#  50]+0.004*[# 193]+0.004*[# 201]+0.004*[# 140]+0.004*[# 153]+
          +0.004*[# 245]+0.004*[# 258]+0.004*[#  11]+0.004*[#  24]+0.004*[#  87]+
          +0.004*[#   7]+0.004*[#  20]+0.004*[# 137]+0.004*[# 150]+0.004*[# 138]+
          +0.004*[# 151]+0.004*[# 184]+0.003*[#  33]+0.003*[#  46]+0.003*[# 141]+
          +0.003*[# 154]+0.003*[# 236]+0.003*[# 249]+0.003*[#  65]+0.003*[# 112]+
          +0.003*[# 125]+0.003*[# 106]+0.003*[# 119]+0.003*[# 114]+0.003*[# 127]+
          +0.002*[# 136]+0.002*[# 149]+0.002*[# 261]+0.002*[# 111]+0.002*[# 124]+
          +0.002*[# 263]+0.002*[# 100]+0.002*[# 132]+0.002*[# 145]+0.002*[# 243]+
          +0.002*[# 205]+0.002*[# 256]+0.002*[# 116]+0.002*[# 129]+0.002*[# 217]+
          +0.002*[# 220]+0.002*[# 230]+0.002*[# 233]+0.002*[# 175]+0.002*[# 178]+
          +0.001*[# 139]+0.001*[# 152]+0.001*[# 195]+0.001*[# 215]+0.001*[# 242]+
          +0.001*[# 228]+0.001*[# 255]+0.001*[# 264]+0.001*[#  61]+0.001*[#  74]+
          +0.001*[# 115]+0.001*[# 128]+0.001*[# 104]+
    |psi|^2 = 0.993

Lowdin Charges: 

     Atom #   1: total charge =  15.7938, s =  2.3786, p =  6.8563, d =  6.5589, 
                 spin up      =   9.4527, s =  1.1964, p =  3.4298, d =  4.8265, 
                 spin down    =   6.3411, s =  1.1822, p =  3.4265, d =  1.7325, 
                 polarization =   3.1116, s =  0.0143, p =  0.0034, d =  3.0940, 
     Atom #   2: total charge =  15.7938, s =  2.3786, p =  6.8563, d =  6.5589, 
                 spin up      =   9.4527, s =  1.1964, p =  3.4298, d =  4.8265, 
                 spin down    =   6.3411, s =  1.1822, p =  3.4265, d =  1.7325, 
                 polarization =   3.1116, s =  0.0143, p =  0.0034, d =  3.0940, 
     Atom #   3: total charge =  15.7942, s =  2.3786, p =  6.8570, d =  6.5586, 
                 spin up      =   9.4537, s =  1.1965, p =  3.4308, d =  4.8265, 
                 spin down    =   6.3405, s =  1.1822, p =  3.4262, d =  1.7321, 
                 polarization =   3.1132, s =  0.0143, p =  0.0045, d =  3.0944, 
     Atom #   4: total charge =  15.7942, s =  2.3786, p =  6.8570, d =  6.5586, 
                 spin up      =   9.4537, s =  1.1965, p =  3.4307, d =  4.8265, 
                 spin down    =   6.3405, s =  1.1822, p =  3.4262, d =  1.7321, 
                 polarization =   3.1132, s =  0.0143, p =  0.0045, d =  3.0944, 
     Atom #   5: total charge =  16.1409, s =  2.3067, p =  7.1658, d =  6.6684, 
                 spin up      =   9.2129, s =  1.1398, p =  3.5202, d =  4.5529, 
                 spin down    =   6.9280, s =  1.1668, p =  3.6456, d =  2.1155, 
                 polarization =   2.2849, s = -0.0270, p = -0.1254, d =  2.4373, 
     Atom #   6: total charge =  16.1400, s =  2.3068, p =  7.1634, d =  6.6698, 
                 spin up      =   9.2149, s =  1.1403, p =  3.5196, d =  4.5551, 
                 spin down    =   6.9251, s =  1.1665, p =  3.6438, d =  2.1147, 
                 polarization =   2.2899, s = -0.0262, p = -0.1243, d =  2.4403, 
     Atom #   7: total charge =  16.1405, s =  2.3063, p =  7.1642, d =  6.6700, 
                 spin up      =   9.2130, s =  1.1399, p =  3.5200, d =  4.5531, 
                 spin down    =   6.9275, s =  1.1663, p =  3.6442, d =  2.1170, 
                 polarization =   2.2855, s = -0.0264, p = -0.1242, d =  2.4361, 
     Atom #   8: total charge =  16.1405, s =  2.3068, p =  7.1627, d =  6.6710, 
                 spin up      =   9.1848, s =  1.1398, p =  3.5189, d =  4.5261, 
                 spin down    =   6.9556, s =  1.1669, p =  3.6438, d =  2.1449, 
                 polarization =   2.2292, s = -0.0271, p = -0.1249, d =  2.3812, 
     Atom #   9: total charge =  15.9963, s =  2.2893, p =  7.0860, d =  6.6210, 
                 spin up      =   9.1501, s =  1.1360, p =  3.4820, d =  4.5321, 
                 spin down    =   6.8462, s =  1.1533, p =  3.6040, d =  2.0889, 
                 polarization =   2.3038, s = -0.0173, p = -0.1220, d =  2.4432, 
     Atom #  10: total charge =  15.9963, s =  2.2893, p =  7.0860, d =  6.6210, 
                 spin up      =   9.1501, s =  1.1360, p =  3.4820, d =  4.5321, 
                 spin down    =   6.8462, s =  1.1533, p =  3.6040, d =  2.0889, 
                 polarization =   2.3039, s = -0.0173, p = -0.1220, d =  2.4433, 
     Atom #  11: total charge =  15.9949, s =  2.2892, p =  7.0841, d =  6.6216, 
                 spin up      =   9.1438, s =  1.1359, p =  3.4813, d =  4.5267, 
                 spin down    =   6.8511, s =  1.1533, p =  3.6029, d =  2.0949, 
                 polarization =   2.2927, s = -0.0174, p = -0.1216, d =  2.4317, 
     Atom #  12: total charge =  15.9950, s =  2.2892, p =  7.0841, d =  6.6216, 
                 spin up      =   9.1439, s =  1.1359, p =  3.4813, d =  4.5267, 
                 spin down    =   6.8511, s =  1.1533, p =  3.6029, d =  2.0949, 
                 polarization =   2.2928, s = -0.0174, p = -0.1216, d =  2.4318, 
     Atom #  13: total charge =  16.0267, s =  2.2896, p =  7.0854, d =  6.6517, 
                 spin up      =   9.2372, s =  1.1343, p =  3.4912, d =  4.6117, 
                 spin down    =   6.7895, s =  1.1553, p =  3.5942, d =  2.0400, 
                 polarization =   2.4477, s = -0.0210, p = -0.1030, d =  2.5717, 
     Atom #  14: total charge =  16.1135, s =  2.3030, p =  7.1443, d =  6.6661, 
                 spin up      =   9.1995, s =  1.1406, p =  3.5176, d =  4.5413, 
                 spin down    =   6.9140, s =  1.1624, p =  3.6268, d =  2.1248, 
                 polarization =   2.2855, s = -0.0218, p = -0.1092, d =  2.4165, 
     Atom #  15: total charge =  16.1283, s =  2.3031, p =  7.1497, d =  6.6755, 
                 spin up      =   9.1879, s =  1.1405, p =  3.5200, d =  4.5274, 
                 spin down    =   6.9404, s =  1.1626, p =  3.6297, d =  2.1481, 
                 polarization =   2.2474, s = -0.0220, p = -0.1098, d =  2.3792, 
     Atom #  16: total charge =  16.1066, s =  2.3077, p =  7.1411, d =  6.6577, 
                 spin up      =   9.1066, s =  1.1449, p =  3.5076, d =  4.4541, 
                 spin down    =   7.0000, s =  1.1629, p =  3.6336, d =  2.2035, 
                 polarization =   2.1066, s = -0.0180, p = -0.1260, d =  2.2506, 
     Atom #  17: total charge =  15.9086, s =  2.3347, p =  6.9311, d =  6.6428, 
                 spin up      =   9.3257, s =  1.1694, p =  3.4653, d =  4.6910, 
                 spin down    =   6.5829, s =  1.1653, p =  3.4658, d =  1.9518, 
                 polarization =   2.7428, s =  0.0041, p = -0.0004, d =  2.7392, 
     Atom #  18: total charge =  15.9084, s =  2.3347, p =  6.9310, d =  6.6427, 
                 spin up      =   9.3258, s =  1.1694, p =  3.4653, d =  4.6912, 
                 spin down    =   6.5826, s =  1.1653, p =  3.4657, d =  1.9515, 
                 polarization =   2.7433, s =  0.0041, p = -0.0004, d =  2.7396, 
     Atom #  19: total charge =  15.9629, s =  2.3256, p =  6.9599, d =  6.6774, 
                 spin up      =   9.2699, s =  1.1644, p =  3.4818, d =  4.6237, 
                 spin down    =   6.6931, s =  1.1613, p =  3.4782, d =  2.0536, 
                 polarization =   2.5768, s =  0.0031, p =  0.0036, d =  2.5701, 
     Atom #  20: total charge =  15.9626, s =  2.3256, p =  6.9598, d =  6.6772, 
                 spin up      =   9.2701, s =  1.1644, p =  3.4817, d =  4.6241, 
                 spin down    =   6.6925, s =  1.1613, p =  3.4781, d =  2.0531, 
                 polarization =   2.5776, s =  0.0031, p =  0.0036, d =  2.5710, 
     Atom #  21: total charge =   5.7728, s =  1.5046, p =  4.2682, d =  0.0000, 
                 spin up      =   2.9244, s =  0.7545, p =  2.1700, d =  0.0000, 
                 spin down    =   2.8483, s =  0.7501, p =  2.0982, d =  0.0000, 
                 polarization =   0.0761, s =  0.0043, p =  0.0717, d =  0.0000, 
     Atom #  22: total charge =   0.8899, s =  0.8899, p =  0.0000, d =  0.0000, 
                 spin up      =   0.4200, s =  0.4200, p =  0.0000, d =  0.0000, 
                 spin down    =   0.4699, s =  0.4699, p =  0.0000, d =  0.0000, 
                 polarization =  -0.0499, s = -0.0499, p =  0.0000, d =  0.0000, 
     Atom #  23: total charge =   0.8813, s =  0.8813, p =  0.0000, d =  0.0000, 
                 spin up      =   0.4149, s =  0.4149, p =  0.0000, d =  0.0000, 
                 spin down    =   0.4664, s =  0.4664, p =  0.0000, d =  0.0000, 
                 polarization =  -0.0514, s = -0.0514, p =  0.0000, d =  0.0000, 
     Spilling Parameter:   0.0019
Application 17618476 resources: utime ~10878s, stime ~156s, Rss ~254204, inblocks ~42656066, outblocks ~30984456
