
     Program PWSCF v.5.0.2 (svn rev. 9656) starts on 18Sep2015 at 10:30:49 

     This program is part of the open-source Quantum ESPRESSO suite
     for quantum simulation of materials; please cite
         "P. Giannozzi et al., J. Phys.:Condens. Matter 21 395502 (2009);
          URL http://www.quantum-espresso.org", 
     in publications or presentations arising from this work. More details at
     http://www.quantum-espresso.org/quote.php

     Parallel version (MPI & OpenMP), running on      48 processor cores
     Number of MPI processes:                48
     Threads/MPI process:                     1
     K-points division:     npool     =       4
     R & G space division:  proc/nbgrp/npool/nimage =      12
     wavefunctions fft division:  fft/group =       2

     Current dimensions of program PWSCF are:
     Max number of different atomic species (ntypx) = 10
     Max number of k-points (npk) =  40000
     Max angular momentum in pseudopotentials (lmaxx) =  3
     Reading input from Fe_100_2x2_H2S_FH_scf.in
Warning: card  &IONS ignored
Warning: card  / ignored
Warning: card  &CELL ignored
Warning: card    PRESS=0.0 ignored
Warning: card    PRESS_CONV_THR=0.1 ignored
Warning: card  / ignored

     IMPORTANT: XC functional enforced from input :
     Exchange-correlation      = PBE ( 1 4 3 4 0)
     EXX-fraction              =        0.00
     Any further DFT definition will be discarded
     Please, verify this is what you really want

               file Fe.pbe-spn-kjpaw_psl.0.2.1.UPF: wavefunction(s)  3D renormalized
               file S.pbe-n-kjpaw_psl.0.1.UPF: wavefunction(s)  3P renormalized
               file H.pbe-kjpaw_psl.0.1.upf: wavefunction(s)  1S renormalized

     Subspace diagonalization in iterative solution of the eigenvalue problem:
     scalapack distributed-memory algorithm (size of sub-group:  2*  2 procs)


   Task Groups are in USE
   groups and procs/group :     2    6
 
     Parallelization info
     --------------------
     sticks:   dense  smooth     PW     G-vecs:    dense   smooth      PW
     Min         608     288     79               124119    40608    5765
     Max         610     289     80               124128    40659    5774
     Sum        7305    3457    949              1489451   487579   69203
 


     bravais-lattice index     =            0
     lattice parameter (alat)  =       1.8897  a.u.
     unit-cell volume          =    3898.2644 (a.u.)^3
     number of atoms/cell      =           23
     number of atomic types    =            3
     number of electrons       =       328.00
     number of Kohn-Sham states=          197
     kinetic-energy cutoff     =      95.0000  Ry
     charge density cutoff     =     800.0000  Ry
     convergence threshold     =      1.0E-08
     mixing beta               =       0.5000
     number of iterations used =            8  local-TF  mixing
     Exchange-correlation      = PBE ( 1 4 3 4 0)
     EXX-fraction              =        0.00

     celldm(1)=   1.889727  celldm(2)=   0.000000  celldm(3)=   0.000000
     celldm(4)=   0.000000  celldm(5)=   0.000000  celldm(6)=   0.000000

     crystal axes: (cart. coord. in units of alat)
               a(1) = (   5.665012   0.000000   0.000000 )  
               a(2) = (   0.000000   5.665012   0.000000 )  
               a(3) = (   0.000000   0.000000  18.000000 )  

     reciprocal axes: (cart. coord. in units 2 pi/alat)
               b(1) = (  0.176522 -0.000000  0.000000 )  
               b(2) = (  0.000000  0.176522  0.000000 )  
               b(3) = (  0.000000  0.000000  0.055556 )  


     PseudoPot. # 1 for Fe read from file:
     /work/e05/e05/ablar/QE_PSEUDO/Fe.pbe-spn-kjpaw_psl.0.2.1.UPF
     MD5 check sum: a0a08122d52b112de96d1da1d7dd020f
     Pseudo is Projector augmented-wave + core cor, Zval = 16.0
     Generated using "atomic" code by A. Dal Corso  v.5.0.2 svn rev. 9415
     Shape of augmentation charge: PSQ
     Using radial grid of 1191 points,  6 beta functions with: 
                l(1) =   0
                l(2) =   0
                l(3) =   1
                l(4) =   1
                l(5) =   2
                l(6) =   2
     Q(r) pseudized with 0 coefficients 


     PseudoPot. # 2 for  S read from file:
     /work/e05/e05/ablar/QE_PSEUDO/S.pbe-n-kjpaw_psl.0.1.UPF
     MD5 check sum: 4d0aa7498161b95d6b336a838fdb998f
     Pseudo is Projector augmented-wave + core cor, Zval =  6.0
     Generated using "atomic" code by A. Dal Corso  v.5.0.2 svn rev. 9415
     Shape of augmentation charge: PSQ
     Using radial grid of 1151 points,  4 beta functions with: 
                l(1) =   0
                l(2) =   0
                l(3) =   1
                l(4) =   1
     Q(r) pseudized with 0 coefficients 


     PseudoPot. # 3 for  H read from file:
     /work/e05/e05/ablar/QE_PSEUDO/H.pbe-kjpaw_psl.0.1.upf
     MD5 check sum: 94e484f906d9e9773b2f6e52662335b2
     Pseudo is Projector augmented-wave, Zval =  1.0
     Generated using "atomic" code by A. Dal Corso  v.5.0.99 svn rev. 10869
     Shape of augmentation charge: PSQ
     Using radial grid of  929 points,  2 beta functions with: 
                l(1) =   0
                l(2) =   0
     Q(r) pseudized with 0 coefficients 


     atomic species   valence    mass     pseudopotential
        Fe            16.00    55.85000     Fe( 1.00)
        S              6.00    32.00000      S( 1.00)
        H              1.00     1.00000      H( 1.00)

     Starting magnetic structure 
     atomic species   magnetization
        Fe           0.600
        S            0.000
        H            0.000


     Simplified LDA+U calculation (l_max = 2) with parameters (eV):
     atomic species    L          U    alpha       J0     beta
        Fe             2     0.0000   0.0000   0.0000   0.0000



     No symmetry found


                                    s                        frac. trans.

      isym =  1     identity                                     

 cryst.   s( 1) = (     1          0          0      )
                  (     0          1          0      )
                  (     0          0          1      )

 cart.    s( 1) = (  1.0000000  0.0000000  0.0000000 )
                  (  0.0000000  1.0000000  0.0000000 )
                  (  0.0000000  0.0000000  1.0000000 )


     point group C_1 (1)    
     there are  1 classes
     the character table:

       E    
A      1.00

     the symmetry operations in each class:
     E        1

   Cartesian axes

     site n.     atom                  positions (alat units)
         1           Fe  tau(   1) = (   0.0000000   0.0000000  -2.8324989  )
         2           Fe  tau(   2) = (   0.0000000   2.8325089  -2.8324989  )
         3           Fe  tau(   3) = (   2.8325089   0.0000000  -2.8324989  )
         4           Fe  tau(   4) = (   2.8324989   2.8325089  -2.8324989  )
         5           Fe  tau(   5) = (   1.4162494   1.4162494  -1.4162594  )
         6           Fe  tau(   6) = (   1.4162494  -1.4162494  -1.4162594  )
         7           Fe  tau(   7) = (  -1.4162494   1.4162494  -1.4162594  )
         8           Fe  tau(   8) = (  -1.4162494  -1.4162494  -1.4162594  )
         9           Fe  tau(   9) = (   0.0000000   0.0000000   0.0000000  )
        10           Fe  tau(  10) = (   0.0000000   2.8324989   0.0000000  )
        11           Fe  tau(  11) = (   2.8324989   0.0000000   0.0000000  )
        12           Fe  tau(  12) = (   2.8324989   2.8324989   0.0000000  )
        13           Fe  tau(  13) = (   1.4138467   1.4162527   1.4196745  )
        14           Fe  tau(  14) = (   1.4158217  -1.4162286   1.4461312  )
        15           Fe  tau(  15) = (  -1.4194167   1.4162747   1.4190702  )
        16           Fe  tau(  16) = (  -1.4159051  -1.4162627   1.4248894  )
        17           Fe  tau(  17) = (  -0.0625359  -0.0472711   2.8616925  )
        18           Fe  tau(  18) = (  -0.0624118   2.8798509   2.8616081  )
        19           Fe  tau(  19) = (   2.8952500  -0.0288764   2.8784457  )
        20           Fe  tau(  20) = (   2.8953157   2.8613010   2.8784124  )
        21           S   tau(  21) = (   1.3990505   1.4162486   3.9178257  )
        22           H   tau(  22) = (   1.7610618   4.2488055   3.1499795  )
        23           H   tau(  23) = (   4.1756900   1.4149696   3.1339379  )

   Crystallographic axes

     site n.     atom                  positions (cryst. coord.)
         1           Fe  tau(   1) = (  0.0000000  0.0000000 -0.1573610  )
         2           Fe  tau(   2) = ( -0.0000000  0.5000005 -0.1573610  )
         3           Fe  tau(   3) = (  0.5000005  0.0000000 -0.1573610  )
         4           Fe  tau(   4) = (  0.4999987  0.5000005 -0.1573610  )
         5           Fe  tau(   5) = (  0.2499994  0.2499994 -0.0786811  )
         6           Fe  tau(   6) = (  0.2499994 -0.2499994 -0.0786811  )
         7           Fe  tau(   7) = ( -0.2499994  0.2499994 -0.0786811  )
         8           Fe  tau(   8) = ( -0.2499994 -0.2499994 -0.0786811  )
         9           Fe  tau(   9) = (  0.0000000  0.0000000  0.0000000  )
        10           Fe  tau(  10) = ( -0.0000000  0.4999987  0.0000000  )
        11           Fe  tau(  11) = (  0.4999987  0.0000000  0.0000000  )
        12           Fe  tau(  12) = (  0.4999987  0.4999987  0.0000000  )
        13           Fe  tau(  13) = (  0.2495752  0.2499999  0.0788708  )
        14           Fe  tau(  14) = (  0.2499239 -0.2499957  0.0803406  )
        15           Fe  tau(  15) = ( -0.2505585  0.2500038  0.0788372  )
        16           Fe  tau(  16) = ( -0.2499386 -0.2500017  0.0791605  )
        17           Fe  tau(  17) = ( -0.0110390 -0.0083444  0.1589829  )
        18           Fe  tau(  18) = ( -0.0110171  0.5083574  0.1589782  )
        19           Fe  tau(  19) = (  0.5110757 -0.0050973  0.1599136  )
        20           Fe  tau(  20) = (  0.5110873  0.5050829  0.1599118  )
        21           S   tau(  21) = (  0.2469634  0.2499992  0.2176570  )
        22           H   tau(  22) = (  0.3108664  0.7500082  0.1749989  )
        23           H   tau(  23) = (  0.7371017  0.2497734  0.1741077  )

     number of k points=    20  Marzari-Vanderbilt smearing, width (Ry)=  0.0400
                       cart. coord. in units 2pi/alat
        k(    1) = (   0.0000000   0.0000000   0.0000000), wk =   0.0625000
        k(    2) = (   0.0000000   0.0441305   0.0000000), wk =   0.1250000
        k(    3) = (   0.0000000  -0.0882611   0.0000000), wk =   0.0625000
        k(    4) = (   0.0441305   0.0441305   0.0000000), wk =   0.1250000
        k(    5) = (   0.0441305  -0.0882611   0.0000000), wk =   0.1250000
        k(    6) = (  -0.0882611  -0.0882611   0.0000000), wk =   0.0625000
        k(    7) = (   0.0441305  -0.0000000   0.0000000), wk =   0.1250000
        k(    8) = (  -0.0882611   0.0000000   0.0000000), wk =   0.0625000
        k(    9) = (  -0.0441305   0.0441305   0.0000000), wk =   0.1250000
        k(   10) = (  -0.0882611   0.0441305   0.0000000), wk =   0.1250000
        k(   11) = (   0.0000000   0.0000000   0.0000000), wk =   0.0625000
        k(   12) = (   0.0000000   0.0441305   0.0000000), wk =   0.1250000
        k(   13) = (   0.0000000  -0.0882611   0.0000000), wk =   0.0625000
        k(   14) = (   0.0441305   0.0441305   0.0000000), wk =   0.1250000
        k(   15) = (   0.0441305  -0.0882611   0.0000000), wk =   0.1250000
        k(   16) = (  -0.0882611  -0.0882611   0.0000000), wk =   0.0625000
        k(   17) = (   0.0441305  -0.0000000   0.0000000), wk =   0.1250000
        k(   18) = (  -0.0882611   0.0000000   0.0000000), wk =   0.0625000
        k(   19) = (  -0.0441305   0.0441305   0.0000000), wk =   0.1250000
        k(   20) = (  -0.0882611   0.0441305   0.0000000), wk =   0.1250000

                       cryst. coord.
        k(    1) = (   0.0000000   0.0000000   0.0000000), wk =   0.0625000
        k(    2) = (   0.0000000   0.2500000   0.0000000), wk =   0.1250000
        k(    3) = (   0.0000000  -0.5000000   0.0000000), wk =   0.0625000
        k(    4) = (   0.2500000   0.2500000   0.0000000), wk =   0.1250000
        k(    5) = (   0.2500000  -0.5000000   0.0000000), wk =   0.1250000
        k(    6) = (  -0.5000000  -0.5000000   0.0000000), wk =   0.0625000
        k(    7) = (   0.2500000   0.0000000   0.0000000), wk =   0.1250000
        k(    8) = (  -0.5000000  -0.0000000   0.0000000), wk =   0.0625000
        k(    9) = (  -0.2500000   0.2500000   0.0000000), wk =   0.1250000
        k(   10) = (  -0.5000000   0.2500000   0.0000000), wk =   0.1250000
        k(   11) = (   0.0000000   0.0000000   0.0000000), wk =   0.0625000
        k(   12) = (   0.0000000   0.2500000   0.0000000), wk =   0.1250000
        k(   13) = (   0.0000000  -0.5000000   0.0000000), wk =   0.0625000
        k(   14) = (   0.2500000   0.2500000   0.0000000), wk =   0.1250000
        k(   15) = (   0.2500000  -0.5000000   0.0000000), wk =   0.1250000
        k(   16) = (  -0.5000000  -0.5000000   0.0000000), wk =   0.0625000
        k(   17) = (   0.2500000   0.0000000   0.0000000), wk =   0.1250000
        k(   18) = (  -0.5000000  -0.0000000   0.0000000), wk =   0.0625000
        k(   19) = (  -0.2500000   0.2500000   0.0000000), wk =   0.1250000
        k(   20) = (  -0.5000000   0.2500000   0.0000000), wk =   0.1250000

     Dense  grid:  1489451 G-vectors     FFT dimensions: ( 100, 100, 320)

     Smooth grid:   487579 G-vectors     FFT dimensions: (  72,  72, 216)

     Largest allocated arrays     est. size (Mb)     dimensions
        Kohn-Sham Wavefunctions        15.35 Mb     (   5107,  197)
        Atomic wavefunctions           20.73 Mb     (   5107,  266)
        NL pseudopotentials            28.99 Mb     (   5107,  372)
        Each V/rho on FFT grid          8.24 Mb     ( 270000,   2)
        Each G-vector array             0.95 Mb     ( 124120)
        G-vector shells                 0.34 Mb     (  44791)
     Largest temporary arrays     est. size (Mb)     dimensions
        Auxiliary wavefunctions        61.41 Mb     (   5107,  788)
        Each subspace H/S matrix        2.37 Mb     ( 394, 394)
        Each <psi_i|beta_j> matrix      1.12 Mb     (    372,  197)
        Arrays for rho mixing          32.96 Mb     ( 270000,   8)

     Check: negative/imaginary core charge=   -0.000011    0.000000

     Initial potential from superposition of free atoms

     starting charge  327.99118, renormalised to  328.00000

     negative rho (up, down):  0.422E-04 0.919E-05
 --- in v_hubbard ---
Hubbard energy    0.0000
 -------
     Number of +U iterations with fixed ns =  0
     Starting occupations:
 --- enter write_ns ---
 LDA+U parameters:
U( 1)     =  0.00000000
alpha( 1) =  0.00000000
atom    1   Tr[ns(na)] (up, down, total) =   5.00000  1.00000  6.00000
   spin  1
    eigenvalues: 
  1.000  1.000  1.000  1.000  1.000
    eigenvectors:
  1.000  0.000  0.000  0.000  0.000
  0.000  1.000  0.000  0.000  0.000
  0.000  0.000  1.000  0.000  0.000
  0.000  0.000  0.000  1.000  0.000
  0.000  0.000  0.000  0.000  1.000
    occupations:
  1.000  0.000  0.000  0.000  0.000
  0.000  1.000  0.000  0.000  0.000
  0.000  0.000  1.000  0.000  0.000
  0.000  0.000  0.000  1.000  0.000
  0.000  0.000  0.000  0.000  1.000
   spin  2
    eigenvalues: 
  0.200  0.200  0.200  0.200  0.200
    eigenvectors:
  1.000  0.000  0.000  0.000  0.000
  0.000  1.000  0.000  0.000  0.000
  0.000  0.000  1.000  0.000  0.000
  0.000  0.000  0.000  1.000  0.000
  0.000  0.000  0.000  0.000  1.000
    occupations:
  0.200  0.000  0.000  0.000  0.000
  0.000  0.200  0.000  0.000  0.000
  0.000  0.000  0.200  0.000  0.000
  0.000  0.000  0.000  0.200  0.000
  0.000  0.000  0.000  0.000  0.200
atomic mag. moment =     4.000000
atom    2   Tr[ns(na)] (up, down, total) =   5.00000  1.00000  6.00000
   spin  1
    eigenvalues: 
  1.000  1.000  1.000  1.000  1.000
    eigenvectors:
  1.000  0.000  0.000  0.000  0.000
  0.000  1.000  0.000  0.000  0.000
  0.000  0.000  1.000  0.000  0.000
  0.000  0.000  0.000  1.000  0.000
  0.000  0.000  0.000  0.000  1.000
    occupations:
  1.000  0.000  0.000  0.000  0.000
  0.000  1.000  0.000  0.000  0.000
  0.000  0.000  1.000  0.000  0.000
  0.000  0.000  0.000  1.000  0.000
  0.000  0.000  0.000  0.000  1.000
   spin  2
    eigenvalues: 
  0.200  0.200  0.200  0.200  0.200
    eigenvectors:
  1.000  0.000  0.000  0.000  0.000
  0.000  1.000  0.000  0.000  0.000
  0.000  0.000  1.000  0.000  0.000
  0.000  0.000  0.000  1.000  0.000
  0.000  0.000  0.000  0.000  1.000
    occupations:
  0.200  0.000  0.000  0.000  0.000
  0.000  0.200  0.000  0.000  0.000
  0.000  0.000  0.200  0.000  0.000
  0.000  0.000  0.000  0.200  0.000
  0.000  0.000  0.000  0.000  0.200
atomic mag. moment =     4.000000
atom    3   Tr[ns(na)] (up, down, total) =   5.00000  1.00000  6.00000
   spin  1
    eigenvalues: 
  1.000  1.000  1.000  1.000  1.000
    eigenvectors:
  1.000  0.000  0.000  0.000  0.000
  0.000  1.000  0.000  0.000  0.000
  0.000  0.000  1.000  0.000  0.000
  0.000  0.000  0.000  1.000  0.000
  0.000  0.000  0.000  0.000  1.000
    occupations:
  1.000  0.000  0.000  0.000  0.000
  0.000  1.000  0.000  0.000  0.000
  0.000  0.000  1.000  0.000  0.000
  0.000  0.000  0.000  1.000  0.000
  0.000  0.000  0.000  0.000  1.000
   spin  2
    eigenvalues: 
  0.200  0.200  0.200  0.200  0.200
    eigenvectors:
  1.000  0.000  0.000  0.000  0.000
  0.000  1.000  0.000  0.000  0.000
  0.000  0.000  1.000  0.000  0.000
  0.000  0.000  0.000  1.000  0.000
  0.000  0.000  0.000  0.000  1.000
    occupations:
  0.200  0.000  0.000  0.000  0.000
  0.000  0.200  0.000  0.000  0.000
  0.000  0.000  0.200  0.000  0.000
  0.000  0.000  0.000  0.200  0.000
  0.000  0.000  0.000  0.000  0.200
atomic mag. moment =     4.000000
atom    4   Tr[ns(na)] (up, down, total) =   5.00000  1.00000  6.00000
   spin  1
    eigenvalues: 
  1.000  1.000  1.000  1.000  1.000
    eigenvectors:
  1.000  0.000  0.000  0.000  0.000
  0.000  1.000  0.000  0.000  0.000
  0.000  0.000  1.000  0.000  0.000
  0.000  0.000  0.000  1.000  0.000
  0.000  0.000  0.000  0.000  1.000
    occupations:
  1.000  0.000  0.000  0.000  0.000
  0.000  1.000  0.000  0.000  0.000
  0.000  0.000  1.000  0.000  0.000
  0.000  0.000  0.000  1.000  0.000
  0.000  0.000  0.000  0.000  1.000
   spin  2
    eigenvalues: 
  0.200  0.200  0.200  0.200  0.200
    eigenvectors:
  1.000  0.000  0.000  0.000  0.000
  0.000  1.000  0.000  0.000  0.000
  0.000  0.000  1.000  0.000  0.000
  0.000  0.000  0.000  1.000  0.000
  0.000  0.000  0.000  0.000  1.000
    occupations:
  0.200  0.000  0.000  0.000  0.000
  0.000  0.200  0.000  0.000  0.000
  0.000  0.000  0.200  0.000  0.000
  0.000  0.000  0.000  0.200  0.000
  0.000  0.000  0.000  0.000  0.200
atomic mag. moment =     4.000000
atom    5   Tr[ns(na)] (up, down, total) =   5.00000  1.00000  6.00000
   spin  1
    eigenvalues: 
  1.000  1.000  1.000  1.000  1.000
    eigenvectors:
  1.000  0.000  0.000  0.000  0.000
  0.000  1.000  0.000  0.000  0.000
  0.000  0.000  1.000  0.000  0.000
  0.000  0.000  0.000  1.000  0.000
  0.000  0.000  0.000  0.000  1.000
    occupations:
  1.000  0.000  0.000  0.000  0.000
  0.000  1.000  0.000  0.000  0.000
  0.000  0.000  1.000  0.000  0.000
  0.000  0.000  0.000  1.000  0.000
  0.000  0.000  0.000  0.000  1.000
   spin  2
    eigenvalues: 
  0.200  0.200  0.200  0.200  0.200
    eigenvectors:
  1.000  0.000  0.000  0.000  0.000
  0.000  1.000  0.000  0.000  0.000
  0.000  0.000  1.000  0.000  0.000
  0.000  0.000  0.000  1.000  0.000
  0.000  0.000  0.000  0.000  1.000
    occupations:
  0.200  0.000  0.000  0.000  0.000
  0.000  0.200  0.000  0.000  0.000
  0.000  0.000  0.200  0.000  0.000
  0.000  0.000  0.000  0.200  0.000
  0.000  0.000  0.000  0.000  0.200
atomic mag. moment =     4.000000
atom    6   Tr[ns(na)] (up, down, total) =   5.00000  1.00000  6.00000
   spin  1
    eigenvalues: 
  1.000  1.000  1.000  1.000  1.000
    eigenvectors:
  1.000  0.000  0.000  0.000  0.000
  0.000  1.000  0.000  0.000  0.000
  0.000  0.000  1.000  0.000  0.000
  0.000  0.000  0.000  1.000  0.000
  0.000  0.000  0.000  0.000  1.000
    occupations:
  1.000  0.000  0.000  0.000  0.000
  0.000  1.000  0.000  0.000  0.000
  0.000  0.000  1.000  0.000  0.000
  0.000  0.000  0.000  1.000  0.000
  0.000  0.000  0.000  0.000  1.000
   spin  2
    eigenvalues: 
  0.200  0.200  0.200  0.200  0.200
    eigenvectors:
  1.000  0.000  0.000  0.000  0.000
  0.000  1.000  0.000  0.000  0.000
  0.000  0.000  1.000  0.000  0.000
  0.000  0.000  0.000  1.000  0.000
  0.000  0.000  0.000  0.000  1.000
    occupations:
  0.200  0.000  0.000  0.000  0.000
  0.000  0.200  0.000  0.000  0.000
  0.000  0.000  0.200  0.000  0.000
  0.000  0.000  0.000  0.200  0.000
  0.000  0.000  0.000  0.000  0.200
atomic mag. moment =     4.000000
atom    7   Tr[ns(na)] (up, down, total) =   5.00000  1.00000  6.00000
   spin  1
    eigenvalues: 
  1.000  1.000  1.000  1.000  1.000
    eigenvectors:
  1.000  0.000  0.000  0.000  0.000
  0.000  1.000  0.000  0.000  0.000
  0.000  0.000  1.000  0.000  0.000
  0.000  0.000  0.000  1.000  0.000
  0.000  0.000  0.000  0.000  1.000
    occupations:
  1.000  0.000  0.000  0.000  0.000
  0.000  1.000  0.000  0.000  0.000
  0.000  0.000  1.000  0.000  0.000
  0.000  0.000  0.000  1.000  0.000
  0.000  0.000  0.000  0.000  1.000
   spin  2
    eigenvalues: 
  0.200  0.200  0.200  0.200  0.200
    eigenvectors:
  1.000  0.000  0.000  0.000  0.000
  0.000  1.000  0.000  0.000  0.000
  0.000  0.000  1.000  0.000  0.000
  0.000  0.000  0.000  1.000  0.000
  0.000  0.000  0.000  0.000  1.000
    occupations:
  0.200  0.000  0.000  0.000  0.000
  0.000  0.200  0.000  0.000  0.000
  0.000  0.000  0.200  0.000  0.000
  0.000  0.000  0.000  0.200  0.000
  0.000  0.000  0.000  0.000  0.200
atomic mag. moment =     4.000000
atom    8   Tr[ns(na)] (up, down, total) =   5.00000  1.00000  6.00000
   spin  1
    eigenvalues: 
  1.000  1.000  1.000  1.000  1.000
    eigenvectors:
  1.000  0.000  0.000  0.000  0.000
  0.000  1.000  0.000  0.000  0.000
  0.000  0.000  1.000  0.000  0.000
  0.000  0.000  0.000  1.000  0.000
  0.000  0.000  0.000  0.000  1.000
    occupations:
  1.000  0.000  0.000  0.000  0.000
  0.000  1.000  0.000  0.000  0.000
  0.000  0.000  1.000  0.000  0.000
  0.000  0.000  0.000  1.000  0.000
  0.000  0.000  0.000  0.000  1.000
   spin  2
    eigenvalues: 
  0.200  0.200  0.200  0.200  0.200
    eigenvectors:
  1.000  0.000  0.000  0.000  0.000
  0.000  1.000  0.000  0.000  0.000
  0.000  0.000  1.000  0.000  0.000
  0.000  0.000  0.000  1.000  0.000
  0.000  0.000  0.000  0.000  1.000
    occupations:
  0.200  0.000  0.000  0.000  0.000
  0.000  0.200  0.000  0.000  0.000
  0.000  0.000  0.200  0.000  0.000
  0.000  0.000  0.000  0.200  0.000
  0.000  0.000  0.000  0.000  0.200
atomic mag. moment =     4.000000
atom    9   Tr[ns(na)] (up, down, total) =   5.00000  1.00000  6.00000
   spin  1
    eigenvalues: 
  1.000  1.000  1.000  1.000  1.000
    eigenvectors:
  1.000  0.000  0.000  0.000  0.000
  0.000  1.000  0.000  0.000  0.000
  0.000  0.000  1.000  0.000  0.000
  0.000  0.000  0.000  1.000  0.000
  0.000  0.000  0.000  0.000  1.000
    occupations:
  1.000  0.000  0.000  0.000  0.000
  0.000  1.000  0.000  0.000  0.000
  0.000  0.000  1.000  0.000  0.000
  0.000  0.000  0.000  1.000  0.000
  0.000  0.000  0.000  0.000  1.000
   spin  2
    eigenvalues: 
  0.200  0.200  0.200  0.200  0.200
    eigenvectors:
  1.000  0.000  0.000  0.000  0.000
  0.000  1.000  0.000  0.000  0.000
  0.000  0.000  1.000  0.000  0.000
  0.000  0.000  0.000  1.000  0.000
  0.000  0.000  0.000  0.000  1.000
    occupations:
  0.200  0.000  0.000  0.000  0.000
  0.000  0.200  0.000  0.000  0.000
  0.000  0.000  0.200  0.000  0.000
  0.000  0.000  0.000  0.200  0.000
  0.000  0.000  0.000  0.000  0.200
atomic mag. moment =     4.000000
atom   10   Tr[ns(na)] (up, down, total) =   5.00000  1.00000  6.00000
   spin  1
    eigenvalues: 
  1.000  1.000  1.000  1.000  1.000
    eigenvectors:
  1.000  0.000  0.000  0.000  0.000
  0.000  1.000  0.000  0.000  0.000
  0.000  0.000  1.000  0.000  0.000
  0.000  0.000  0.000  1.000  0.000
  0.000  0.000  0.000  0.000  1.000
    occupations:
  1.000  0.000  0.000  0.000  0.000
  0.000  1.000  0.000  0.000  0.000
  0.000  0.000  1.000  0.000  0.000
  0.000  0.000  0.000  1.000  0.000
  0.000  0.000  0.000  0.000  1.000
   spin  2
    eigenvalues: 
  0.200  0.200  0.200  0.200  0.200
    eigenvectors:
  1.000  0.000  0.000  0.000  0.000
  0.000  1.000  0.000  0.000  0.000
  0.000  0.000  1.000  0.000  0.000
  0.000  0.000  0.000  1.000  0.000
  0.000  0.000  0.000  0.000  1.000
    occupations:
  0.200  0.000  0.000  0.000  0.000
  0.000  0.200  0.000  0.000  0.000
  0.000  0.000  0.200  0.000  0.000
  0.000  0.000  0.000  0.200  0.000
  0.000  0.000  0.000  0.000  0.200
atomic mag. moment =     4.000000
atom   11   Tr[ns(na)] (up, down, total) =   5.00000  1.00000  6.00000
   spin  1
    eigenvalues: 
  1.000  1.000  1.000  1.000  1.000
    eigenvectors:
  1.000  0.000  0.000  0.000  0.000
  0.000  1.000  0.000  0.000  0.000
  0.000  0.000  1.000  0.000  0.000
  0.000  0.000  0.000  1.000  0.000
  0.000  0.000  0.000  0.000  1.000
    occupations:
  1.000  0.000  0.000  0.000  0.000
  0.000  1.000  0.000  0.000  0.000
  0.000  0.000  1.000  0.000  0.000
  0.000  0.000  0.000  1.000  0.000
  0.000  0.000  0.000  0.000  1.000
   spin  2
    eigenvalues: 
  0.200  0.200  0.200  0.200  0.200
    eigenvectors:
  1.000  0.000  0.000  0.000  0.000
  0.000  1.000  0.000  0.000  0.000
  0.000  0.000  1.000  0.000  0.000
  0.000  0.000  0.000  1.000  0.000
  0.000  0.000  0.000  0.000  1.000
    occupations:
  0.200  0.000  0.000  0.000  0.000
  0.000  0.200  0.000  0.000  0.000
  0.000  0.000  0.200  0.000  0.000
  0.000  0.000  0.000  0.200  0.000
  0.000  0.000  0.000  0.000  0.200
atomic mag. moment =     4.000000
atom   12   Tr[ns(na)] (up, down, total) =   5.00000  1.00000  6.00000
   spin  1
    eigenvalues: 
  1.000  1.000  1.000  1.000  1.000
    eigenvectors:
  1.000  0.000  0.000  0.000  0.000
  0.000  1.000  0.000  0.000  0.000
  0.000  0.000  1.000  0.000  0.000
  0.000  0.000  0.000  1.000  0.000
  0.000  0.000  0.000  0.000  1.000
    occupations:
  1.000  0.000  0.000  0.000  0.000
  0.000  1.000  0.000  0.000  0.000
  0.000  0.000  1.000  0.000  0.000
  0.000  0.000  0.000  1.000  0.000
  0.000  0.000  0.000  0.000  1.000
   spin  2
    eigenvalues: 
  0.200  0.200  0.200  0.200  0.200
    eigenvectors:
  1.000  0.000  0.000  0.000  0.000
  0.000  1.000  0.000  0.000  0.000
  0.000  0.000  1.000  0.000  0.000
  0.000  0.000  0.000  1.000  0.000
  0.000  0.000  0.000  0.000  1.000
    occupations:
  0.200  0.000  0.000  0.000  0.000
  0.000  0.200  0.000  0.000  0.000
  0.000  0.000  0.200  0.000  0.000
  0.000  0.000  0.000  0.200  0.000
  0.000  0.000  0.000  0.000  0.200
atomic mag. moment =     4.000000
atom   13   Tr[ns(na)] (up, down, total) =   5.00000  1.00000  6.00000
   spin  1
    eigenvalues: 
  1.000  1.000  1.000  1.000  1.000
    eigenvectors:
  1.000  0.000  0.000  0.000  0.000
  0.000  1.000  0.000  0.000  0.000
  0.000  0.000  1.000  0.000  0.000
  0.000  0.000  0.000  1.000  0.000
  0.000  0.000  0.000  0.000  1.000
    occupations:
  1.000  0.000  0.000  0.000  0.000
  0.000  1.000  0.000  0.000  0.000
  0.000  0.000  1.000  0.000  0.000
  0.000  0.000  0.000  1.000  0.000
  0.000  0.000  0.000  0.000  1.000
   spin  2
    eigenvalues: 
  0.200  0.200  0.200  0.200  0.200
    eigenvectors:
  1.000  0.000  0.000  0.000  0.000
  0.000  1.000  0.000  0.000  0.000
  0.000  0.000  1.000  0.000  0.000
  0.000  0.000  0.000  1.000  0.000
  0.000  0.000  0.000  0.000  1.000
    occupations:
  0.200  0.000  0.000  0.000  0.000
  0.000  0.200  0.000  0.000  0.000
  0.000  0.000  0.200  0.000  0.000
  0.000  0.000  0.000  0.200  0.000
  0.000  0.000  0.000  0.000  0.200
atomic mag. moment =     4.000000
atom   14   Tr[ns(na)] (up, down, total) =   5.00000  1.00000  6.00000
   spin  1
    eigenvalues: 
  1.000  1.000  1.000  1.000  1.000
    eigenvectors:
  1.000  0.000  0.000  0.000  0.000
  0.000  1.000  0.000  0.000  0.000
  0.000  0.000  1.000  0.000  0.000
  0.000  0.000  0.000  1.000  0.000
  0.000  0.000  0.000  0.000  1.000
    occupations:
  1.000  0.000  0.000  0.000  0.000
  0.000  1.000  0.000  0.000  0.000
  0.000  0.000  1.000  0.000  0.000
  0.000  0.000  0.000  1.000  0.000
  0.000  0.000  0.000  0.000  1.000
   spin  2
    eigenvalues: 
  0.200  0.200  0.200  0.200  0.200
    eigenvectors:
  1.000  0.000  0.000  0.000  0.000
  0.000  1.000  0.000  0.000  0.000
  0.000  0.000  1.000  0.000  0.000
  0.000  0.000  0.000  1.000  0.000
  0.000  0.000  0.000  0.000  1.000
    occupations:
  0.200  0.000  0.000  0.000  0.000
  0.000  0.200  0.000  0.000  0.000
  0.000  0.000  0.200  0.000  0.000
  0.000  0.000  0.000  0.200  0.000
  0.000  0.000  0.000  0.000  0.200
atomic mag. moment =     4.000000
atom   15   Tr[ns(na)] (up, down, total) =   5.00000  1.00000  6.00000
   spin  1
    eigenvalues: 
  1.000  1.000  1.000  1.000  1.000
    eigenvectors:
  1.000  0.000  0.000  0.000  0.000
  0.000  1.000  0.000  0.000  0.000
  0.000  0.000  1.000  0.000  0.000
  0.000  0.000  0.000  1.000  0.000
  0.000  0.000  0.000  0.000  1.000
    occupations:
  1.000  0.000  0.000  0.000  0.000
  0.000  1.000  0.000  0.000  0.000
  0.000  0.000  1.000  0.000  0.000
  0.000  0.000  0.000  1.000  0.000
  0.000  0.000  0.000  0.000  1.000
   spin  2
    eigenvalues: 
  0.200  0.200  0.200  0.200  0.200
    eigenvectors:
  1.000  0.000  0.000  0.000  0.000
  0.000  1.000  0.000  0.000  0.000
  0.000  0.000  1.000  0.000  0.000
  0.000  0.000  0.000  1.000  0.000
  0.000  0.000  0.000  0.000  1.000
    occupations:
  0.200  0.000  0.000  0.000  0.000
  0.000  0.200  0.000  0.000  0.000
  0.000  0.000  0.200  0.000  0.000
  0.000  0.000  0.000  0.200  0.000
  0.000  0.000  0.000  0.000  0.200
atomic mag. moment =     4.000000
atom   16   Tr[ns(na)] (up, down, total) =   5.00000  1.00000  6.00000
   spin  1
    eigenvalues: 
  1.000  1.000  1.000  1.000  1.000
    eigenvectors:
  1.000  0.000  0.000  0.000  0.000
  0.000  1.000  0.000  0.000  0.000
  0.000  0.000  1.000  0.000  0.000
  0.000  0.000  0.000  1.000  0.000
  0.000  0.000  0.000  0.000  1.000
    occupations:
  1.000  0.000  0.000  0.000  0.000
  0.000  1.000  0.000  0.000  0.000
  0.000  0.000  1.000  0.000  0.000
  0.000  0.000  0.000  1.000  0.000
  0.000  0.000  0.000  0.000  1.000
   spin  2
    eigenvalues: 
  0.200  0.200  0.200  0.200  0.200
    eigenvectors:
  1.000  0.000  0.000  0.000  0.000
  0.000  1.000  0.000  0.000  0.000
  0.000  0.000  1.000  0.000  0.000
  0.000  0.000  0.000  1.000  0.000
  0.000  0.000  0.000  0.000  1.000
    occupations:
  0.200  0.000  0.000  0.000  0.000
  0.000  0.200  0.000  0.000  0.000
  0.000  0.000  0.200  0.000  0.000
  0.000  0.000  0.000  0.200  0.000
  0.000  0.000  0.000  0.000  0.200
atomic mag. moment =     4.000000
atom   17   Tr[ns(na)] (up, down, total) =   5.00000  1.00000  6.00000
   spin  1
    eigenvalues: 
  1.000  1.000  1.000  1.000  1.000
    eigenvectors:
  1.000  0.000  0.000  0.000  0.000
  0.000  1.000  0.000  0.000  0.000
  0.000  0.000  1.000  0.000  0.000
  0.000  0.000  0.000  1.000  0.000
  0.000  0.000  0.000  0.000  1.000
    occupations:
  1.000  0.000  0.000  0.000  0.000
  0.000  1.000  0.000  0.000  0.000
  0.000  0.000  1.000  0.000  0.000
  0.000  0.000  0.000  1.000  0.000
  0.000  0.000  0.000  0.000  1.000
   spin  2
    eigenvalues: 
  0.200  0.200  0.200  0.200  0.200
    eigenvectors:
  1.000  0.000  0.000  0.000  0.000
  0.000  1.000  0.000  0.000  0.000
  0.000  0.000  1.000  0.000  0.000
  0.000  0.000  0.000  1.000  0.000
  0.000  0.000  0.000  0.000  1.000
    occupations:
  0.200  0.000  0.000  0.000  0.000
  0.000  0.200  0.000  0.000  0.000
  0.000  0.000  0.200  0.000  0.000
  0.000  0.000  0.000  0.200  0.000
  0.000  0.000  0.000  0.000  0.200
atomic mag. moment =     4.000000
atom   18   Tr[ns(na)] (up, down, total) =   5.00000  1.00000  6.00000
   spin  1
    eigenvalues: 
  1.000  1.000  1.000  1.000  1.000
    eigenvectors:
  1.000  0.000  0.000  0.000  0.000
  0.000  1.000  0.000  0.000  0.000
  0.000  0.000  1.000  0.000  0.000
  0.000  0.000  0.000  1.000  0.000
  0.000  0.000  0.000  0.000  1.000
    occupations:
  1.000  0.000  0.000  0.000  0.000
  0.000  1.000  0.000  0.000  0.000
  0.000  0.000  1.000  0.000  0.000
  0.000  0.000  0.000  1.000  0.000
  0.000  0.000  0.000  0.000  1.000
   spin  2
    eigenvalues: 
  0.200  0.200  0.200  0.200  0.200
    eigenvectors:
  1.000  0.000  0.000  0.000  0.000
  0.000  1.000  0.000  0.000  0.000
  0.000  0.000  1.000  0.000  0.000
  0.000  0.000  0.000  1.000  0.000
  0.000  0.000  0.000  0.000  1.000
    occupations:
  0.200  0.000  0.000  0.000  0.000
  0.000  0.200  0.000  0.000  0.000
  0.000  0.000  0.200  0.000  0.000
  0.000  0.000  0.000  0.200  0.000
  0.000  0.000  0.000  0.000  0.200
atomic mag. moment =     4.000000
atom   19   Tr[ns(na)] (up, down, total) =   5.00000  1.00000  6.00000
   spin  1
    eigenvalues: 
  1.000  1.000  1.000  1.000  1.000
    eigenvectors:
  1.000  0.000  0.000  0.000  0.000
  0.000  1.000  0.000  0.000  0.000
  0.000  0.000  1.000  0.000  0.000
  0.000  0.000  0.000  1.000  0.000
  0.000  0.000  0.000  0.000  1.000
    occupations:
  1.000  0.000  0.000  0.000  0.000
  0.000  1.000  0.000  0.000  0.000
  0.000  0.000  1.000  0.000  0.000
  0.000  0.000  0.000  1.000  0.000
  0.000  0.000  0.000  0.000  1.000
   spin  2
    eigenvalues: 
  0.200  0.200  0.200  0.200  0.200
    eigenvectors:
  1.000  0.000  0.000  0.000  0.000
  0.000  1.000  0.000  0.000  0.000
  0.000  0.000  1.000  0.000  0.000
  0.000  0.000  0.000  1.000  0.000
  0.000  0.000  0.000  0.000  1.000
    occupations:
  0.200  0.000  0.000  0.000  0.000
  0.000  0.200  0.000  0.000  0.000
  0.000  0.000  0.200  0.000  0.000
  0.000  0.000  0.000  0.200  0.000
  0.000  0.000  0.000  0.000  0.200
atomic mag. moment =     4.000000
atom   20   Tr[ns(na)] (up, down, total) =   5.00000  1.00000  6.00000
   spin  1
    eigenvalues: 
  1.000  1.000  1.000  1.000  1.000
    eigenvectors:
  1.000  0.000  0.000  0.000  0.000
  0.000  1.000  0.000  0.000  0.000
  0.000  0.000  1.000  0.000  0.000
  0.000  0.000  0.000  1.000  0.000
  0.000  0.000  0.000  0.000  1.000
    occupations:
  1.000  0.000  0.000  0.000  0.000
  0.000  1.000  0.000  0.000  0.000
  0.000  0.000  1.000  0.000  0.000
  0.000  0.000  0.000  1.000  0.000
  0.000  0.000  0.000  0.000  1.000
   spin  2
    eigenvalues: 
  0.200  0.200  0.200  0.200  0.200
    eigenvectors:
  1.000  0.000  0.000  0.000  0.000
  0.000  1.000  0.000  0.000  0.000
  0.000  0.000  1.000  0.000  0.000
  0.000  0.000  0.000  1.000  0.000
  0.000  0.000  0.000  0.000  1.000
    occupations:
  0.200  0.000  0.000  0.000  0.000
  0.000  0.200  0.000  0.000  0.000
  0.000  0.000  0.200  0.000  0.000
  0.000  0.000  0.000  0.200  0.000
  0.000  0.000  0.000  0.000  0.200
atomic mag. moment =     4.000000
N of occupied +U levels = 120.0000000
 --- exit write_ns ---
 Atomic wfc used for LDA+U Projector are NOT orthogonalized
     Starting wfc are  266 randomized atomic wfcs
     Checking if some PAW data can be deallocated... 
       node    0, deallocated PAW data for type:  2
       node    0, deallocated PAW data for type:  3
       node    1, deallocated PAW data for type:  2
       node    1, deallocated PAW data for type:  3
       node    2, deallocated PAW data for type:  2
       node    2, deallocated PAW data for type:  3
       node    3, deallocated PAW data for type:  2
       node    3, deallocated PAW data for type:  3
       node    4, deallocated PAW data for type:  2
       node    4, deallocated PAW data for type:  3
       node    5, deallocated PAW data for type:  2
       node    5, deallocated PAW data for type:  3
       node    6, deallocated PAW data for type:  2
       node    6, deallocated PAW data for type:  3
       node    7, deallocated PAW data for type:  2
       node    7, deallocated PAW data for type:  3
       node    8, deallocated PAW data for type:  2
       node    8, deallocated PAW data for type:  3
       node    9, deallocated PAW data for type:  2
       node    9, deallocated PAW data for type:  3
       node   10, deallocated PAW data for type:  2
       node   10, deallocated PAW data for type:  3
       node   11, deallocated PAW data for type:  2
       node   11, deallocated PAW data for type:  3
       node   12, deallocated PAW data for type:  2
       node   12, deallocated PAW data for type:  3
       node   13, deallocated PAW data for type:  2
       node   13, deallocated PAW data for type:  3
       node   14, deallocated PAW data for type:  2
       node   14, deallocated PAW data for type:  3
       node   15, deallocated PAW data for type:  2
       node   15, deallocated PAW data for type:  3
       node   16, deallocated PAW data for type:  2
       node   16, deallocated PAW data for type:  3
       node   17, deallocated PAW data for type:  2
       node   17, deallocated PAW data for type:  3
       node   18, deallocated PAW data for type:  2
       node   18, deallocated PAW data for type:  3
       node   19, deallocated PAW data for type:  2
       node   19, deallocated PAW data for type:  3
       node   20, deallocated PAW data for type:  2
       node   20, deallocated PAW data for type:  3
       node   21, deallocated PAW data for type:  2
       node   21, deallocated PAW data for type:  3
       node   22, deallocated PAW data for type:  2
       node   22, deallocated PAW data for type:  3
       node   23, deallocated PAW data for type:  2
       node   23, deallocated PAW data for type:  3
       node   24, deallocated PAW data for type:  2
       node   24, deallocated PAW data for type:  3
       node   25, deallocated PAW data for type:  2
       node   25, deallocated PAW data for type:  3
       node   26, deallocated PAW data for type:  2
       node   26, deallocated PAW data for type:  3
       node   27, deallocated PAW data for type:  2
       node   27, deallocated PAW data for type:  3
       node   28, deallocated PAW data for type:  2
       node   28, deallocated PAW data for type:  3
       node   29, deallocated PAW data for type:  2
       node   29, deallocated PAW data for type:  3
       node   30, deallocated PAW data for type:  2
       node   30, deallocated PAW data for type:  3
       node   31, deallocated PAW data for type:  2
       node   31, deallocated PAW data for type:  3
       node   32, deallocated PAW data for type:  2
       node   32, deallocated PAW data for type:  3
       node   33, deallocated PAW data for type:  2
       node   33, deallocated PAW data for type:  3
       node   34, deallocated PAW data for type:  2
       node   34, deallocated PAW data for type:  3
       node   35, deallocated PAW data for type:  2
       node   35, deallocated PAW data for type:  3
       node   36, deallocated PAW data for type:  2
       node   36, deallocated PAW data for type:  3
       node   37, deallocated PAW data for type:  2
       node   37, deallocated PAW data for type:  3
       node   38, deallocated PAW data for type:  2
       node   38, deallocated PAW data for type:  3
       node   39, deallocated PAW data for type:  2
       node   39, deallocated PAW data for type:  3
       node   40, deallocated PAW data for type:  2
       node   40, deallocated PAW data for type:  3
       node   41, deallocated PAW data for type:  2
       node   41, deallocated PAW data for type:  3
       node   42, deallocated PAW data for type:  1
       node   42, deallocated PAW data for type:  3
       node   43, deallocated PAW data for type:  1
       node   43, deallocated PAW data for type:  3
       node   44, deallocated PAW data for type:  1
       node   44, deallocated PAW data for type:  2
       node   45, deallocated PAW data for type:  1
       node   45, deallocated PAW data for type:  2
       node   46, deallocated PAW data for type:  1
       node   46, deallocated PAW data for type:  2
       node   47, deallocated PAW data for type:  1
       node   47, deallocated PAW data for type:  2

     total cpu time spent up to now is       59.1 secs

     per-process dynamical memory:   373.6 Mb

     Self-consistent Calculation

     iteration #  1     ecut=    95.00 Ry     beta=0.50
     Davidson diagonalization with overlap
     ethr =  1.00E-02,  avg # of iterations =  2.9
 --- enter write_ns ---
 LDA+U parameters:
U( 1)     =  0.00000000
alpha( 1) =  0.00000000
atom    1   Tr[ns(na)] (up, down, total) =   4.96944  1.09793  6.06737
   spin  1
    eigenvalues: 
  0.993  0.993  0.993  0.995  0.996
    eigenvectors:
  0.034  0.013  0.948  0.006  0.000
  0.449  0.548  0.001  0.002  0.000
  0.516  0.435  0.046  0.002  0.001
  0.001  0.000  0.000  0.000  0.999
  0.000  0.004  0.004  0.991  0.000
    occupations:
  0.993  0.000 -0.000 -0.000 -0.000
  0.000  0.993  0.000  0.000 -0.000
 -0.000  0.000  0.993 -0.000 -0.000
 -0.000  0.000 -0.000  0.996 -0.000
 -0.000 -0.000 -0.000 -0.000  0.995
   spin  2
    eigenvalues: 
  0.190  0.190  0.211  0.235  0.271
    eigenvectors:
  0.000  0.000  1.000  0.000  0.000
  0.474  0.526  0.000  0.000  0.000
  0.526  0.474  0.000  0.000  0.000
  0.000  0.000  0.000  1.000  0.000
  0.000  0.000  0.000  0.000  1.000
    occupations:
  0.211 -0.000  0.000  0.000  0.000
 -0.000  0.190 -0.000 -0.000  0.000
  0.000 -0.000  0.190  0.000 -0.000
  0.000 -0.000  0.000  0.235 -0.000
  0.000  0.000 -0.000 -0.000  0.271
atomic mag. moment =     3.871515
atom    2   Tr[ns(na)] (up, down, total) =   4.96949  1.09695  6.06644
   spin  1
    eigenvalues: 
  0.993  0.993  0.993  0.995  0.996
    eigenvectors:
  0.035  0.039  0.921  0.005  0.000
  0.403  0.593  0.001  0.001  0.001
  0.559  0.363  0.074  0.002  0.001
  0.002  0.000  0.000  0.000  0.998
  0.001  0.005  0.003  0.991  0.000
    occupations:
  0.993  0.000  0.000 -0.000  0.000
  0.000  0.993 -0.000  0.000  0.000
  0.000 -0.000  0.993  0.000 -0.000
 -0.000  0.000  0.000  0.996 -0.000
  0.000  0.000 -0.000 -0.000  0.995
   spin  2
    eigenvalues: 
  0.190  0.190  0.212  0.235  0.270
    eigenvectors:
  0.000  0.000  1.000  0.000  0.000
  0.091  0.909  0.000  0.000  0.000
  0.909  0.091  0.000  0.000  0.000
  0.000  0.000  0.000  1.000  0.000
  0.000  0.000  0.000  0.000  1.000
    occupations:
  0.212  0.000  0.000 -0.000 -0.000
  0.000  0.190 -0.000  0.000 -0.000
  0.000 -0.000  0.190 -0.000  0.001
 -0.000  0.000 -0.000  0.235  0.000
 -0.000 -0.000  0.001  0.000  0.270
atomic mag. moment =     3.872542
atom    3   Tr[ns(na)] (up, down, total) =   4.96913  1.09688  6.06601
   spin  1
    eigenvalues: 
  0.992  0.993  0.993  0.995  0.996
    eigenvectors:
  0.598  0.001  0.393  0.008  0.000
  0.000  0.997  0.001  0.002  0.000
  0.399  0.001  0.599  0.001  0.001
  0.001  0.000  0.000  0.000  0.998
  0.003  0.001  0.006  0.990  0.000
    occupations:
  0.993 -0.000  0.000  0.000  0.000
 -0.000  0.993 -0.000 -0.000 -0.000
  0.000 -0.000  0.993 -0.000  0.000
  0.000 -0.000 -0.000  0.996 -0.000
  0.000 -0.000  0.000 -0.000  0.995
   spin  2
    eigenvalues: 
  0.190  0.190  0.211  0.236  0.270
    eigenvectors:
  0.000  0.000  1.000  0.000  0.000
  0.635  0.365  0.000  0.000  0.000
  0.365  0.635  0.000  0.000  0.000
  0.000  0.000  0.000  1.000  0.000
  0.000  0.000  0.000  0.000  1.000
    occupations:
  0.211  0.000 -0.000 -0.000 -0.000
  0.000  0.190  0.000 -0.000 -0.000
 -0.000  0.000  0.190 -0.000 -0.000
 -0.000 -0.000 -0.000  0.236  0.000
 -0.000 -0.000 -0.000  0.000  0.270
atomic mag. moment =     3.872250
atom    4   Tr[ns(na)] (up, down, total) =   4.96912  1.09500  6.06412
   spin  1
    eigenvalues: 
  0.992  0.993  0.993  0.995  0.996
    eigenvectors:
  0.529  0.018  0.447  0.006  0.000
  0.012  0.980  0.006  0.002  0.000
  0.457  0.000  0.541  0.001  0.001
  0.001  0.000  0.000  0.000  0.998
  0.002  0.001  0.006  0.991  0.000
    occupations:
  0.993  0.000 -0.000  0.000 -0.000
  0.000  0.993  0.000 -0.000  0.000
 -0.000  0.000  0.993  0.000  0.000
  0.000 -0.000  0.000  0.996 -0.000
 -0.000  0.000  0.000 -0.000  0.995
   spin  2
    eigenvalues: 
  0.189  0.190  0.211  0.235  0.269
    eigenvectors:
  0.000  0.000  1.000  0.000  0.000
  0.545  0.455  0.000  0.000  0.000
  0.455  0.545  0.000  0.000  0.000
  0.000  0.000  0.000  1.000  0.000
  0.000  0.000  0.000  0.000  1.000
    occupations:
  0.211 -0.000  0.000  0.000  0.001
 -0.000  0.190 -0.000 -0.000  0.000
  0.000 -0.000  0.190  0.000 -0.000
  0.000 -0.000  0.000  0.235  0.000
  0.001  0.000 -0.000  0.000  0.269
atomic mag. moment =     3.874121
atom    5   Tr[ns(na)] (up, down, total) =   4.97784  2.32659  7.30443
   spin  1
    eigenvalues: 
  0.995  0.995  0.995  0.996  0.997
    eigenvectors:
  0.001  0.000  0.000  0.000  0.999
  0.850  0.001  0.149  0.000  0.000
  0.000  0.993  0.001  0.006  0.000
  0.149  0.001  0.850  0.000  0.000
  0.000  0.006  0.000  0.994  0.000
    occupations:
  0.997 -0.000  0.000  0.000  0.000
 -0.000  0.995  0.000  0.000  0.000
  0.000  0.000  0.995 -0.000  0.000
  0.000  0.000 -0.000  0.995 -0.000
  0.000  0.000  0.000 -0.000  0.996
   spin  2
    eigenvalues: 
  0.399  0.405  0.506  0.507  0.509
    eigenvectors:
  0.007  0.993  0.000  0.000  0.000
  0.000  0.000  0.243  0.678  0.078
  0.000  0.000  0.729  0.270  0.001
  0.993  0.007  0.000  0.000  0.000
  0.000  0.000  0.027  0.052  0.921
    occupations:
  0.405 -0.000 -0.000 -0.001  0.000
 -0.000  0.507 -0.000 -0.000 -0.001
 -0.000 -0.000  0.507 -0.000 -0.000
 -0.001 -0.000 -0.000  0.399 -0.000
  0.000 -0.001 -0.000 -0.000  0.509
atomic mag. moment =     2.651255
atom    6   Tr[ns(na)] (up, down, total) =   4.97810  2.35205  7.33015
   spin  1
    eigenvalues: 
  0.995  0.995  0.995  0.995  0.997
    eigenvectors:
  0.000  0.000  0.000  0.006  0.993
  0.004  0.986  0.000  0.010  0.000
  0.981  0.004  0.014  0.000  0.000
  0.001  0.009  0.001  0.983  0.007
  0.014  0.000  0.986  0.001  0.000
    occupations:
  0.997  0.000  0.000 -0.000 -0.000
  0.000  0.995  0.000  0.000 -0.000
  0.000  0.000  0.995 -0.000  0.000
 -0.000  0.000 -0.000  0.995  0.000
 -0.000 -0.000  0.000  0.000  0.995
   spin  2
    eigenvalues: 
  0.399  0.403  0.510  0.519  0.520
    eigenvectors:
  0.001  0.999  0.000  0.000  0.000
  0.000  0.000  0.000  0.963  0.036
  0.000  0.000  0.008  0.036  0.956
  0.999  0.001  0.000  0.000  0.000
  0.000  0.000  0.992  0.000  0.008
    occupations:
  0.403 -0.001  0.000  0.000 -0.000
 -0.001  0.519  0.000 -0.001 -0.000
  0.000  0.000  0.520  0.000 -0.001
  0.000 -0.001  0.000  0.399 -0.000
 -0.000 -0.000 -0.001 -0.000  0.510
atomic mag. moment =     2.626048
atom    7   Tr[ns(na)] (up, down, total) =   4.97814  2.35491  7.33305
   spin  1
    eigenvalues: 
  0.995  0.995  0.995  0.996  0.997
    eigenvectors:
  0.000  0.000  0.006  0.000  0.994
  0.989  0.008  0.003  0.000  0.000
  0.007  0.946  0.001  0.046  0.000
  0.003  0.001  0.990  0.001  0.006
  0.001  0.046  0.000  0.953  0.000
    occupations:
  0.997  0.000 -0.000  0.000 -0.000
  0.000  0.995 -0.000 -0.000 -0.000
 -0.000 -0.000  0.995  0.000 -0.000
  0.000 -0.000  0.000  0.995  0.000
 -0.000 -0.000 -0.000  0.000  0.996
   spin  2
    eigenvalues: 
  0.399  0.406  0.509  0.520  0.521
    eigenvectors:
  0.003  0.997  0.000  0.000  0.000
  0.000  0.000  0.000  0.018  0.982
  0.000  0.000  0.011  0.971  0.018
  0.997  0.003  0.000  0.000  0.000
  0.000  0.000  0.989  0.011  0.000
    occupations:
  0.406 -0.000 -0.000  0.000  0.000
 -0.000  0.521  0.000  0.000  0.000
 -0.000  0.000  0.519 -0.000  0.001
  0.000  0.000 -0.000  0.399  0.000
  0.000  0.000  0.001  0.000  0.509
atomic mag. moment =     2.623228
atom    8   Tr[ns(na)] (up, down, total) =   4.97702  2.33677  7.31380
   spin  1
    eigenvalues: 
  0.995  0.995  0.995  0.995  0.997
    eigenvectors:
  0.000  0.000  0.000  0.000  1.000
  0.007  0.988  0.001  0.004  0.000
  0.988  0.007  0.004  0.001  0.000
  0.000  0.004  0.044  0.951  0.000
  0.005  0.000  0.951  0.044  0.000
    occupations:
  0.997 -0.000 -0.000  0.000 -0.000
 -0.000  0.995 -0.000  0.000  0.000
 -0.000 -0.000  0.995  0.000 -0.000
  0.000  0.000  0.000  0.995 -0.000
 -0.000  0.000 -0.000 -0.000  0.995
   spin  2
    eigenvalues: 
  0.399  0.407  0.510  0.510  0.511
    eigenvectors:
  0.000  1.000  0.000  0.000  0.000
  0.000  0.000  0.215  0.704  0.080
  0.000  0.000  0.565  0.294  0.141
  1.000  0.000  0.000  0.000  0.000
  0.000  0.000  0.219  0.002  0.779
    occupations:
  0.407  0.000 -0.000  0.000 -0.000
  0.000  0.510 -0.000  0.000 -0.000
 -0.000 -0.000  0.510 -0.000  0.000
  0.000  0.000 -0.000  0.399  0.000
 -0.000 -0.000  0.000  0.000  0.511
atomic mag. moment =     2.640249
atom    9   Tr[ns(na)] (up, down, total) =   4.97619  2.30922  7.28541
   spin  1
    eigenvalues: 
  0.994  0.994  0.995  0.996  0.997
    eigenvectors:
  0.001  0.002  0.000  0.000  0.997
  0.173  0.822  0.002  0.003  0.001
  0.813  0.172  0.004  0.009  0.002
  0.011  0.000  0.001  0.988  0.000
  0.002  0.004  0.993  0.001  0.000
    occupations:
  0.997  0.000  0.000  0.000  0.000
  0.000  0.994  0.000  0.000 -0.000
  0.000  0.000  0.994 -0.000 -0.000
  0.000  0.000 -0.000  0.996  0.000
  0.000 -0.000 -0.000  0.000  0.995
   spin  2
    eigenvalues: 
  0.357  0.390  0.515  0.519  0.528
    eigenvectors:
  0.999  0.000  0.000  0.000  0.000
  0.000  0.000  0.556  0.443  0.001
  0.000  0.000  0.443  0.556  0.000
  0.000  1.000  0.000  0.000  0.000
  0.000  0.000  0.001  0.001  0.998
    occupations:
  0.357  0.001  0.003  0.001 -0.003
  0.001  0.517  0.002 -0.000  0.000
  0.003  0.002  0.517  0.000 -0.000
  0.001 -0.000  0.000  0.390  0.001
 -0.003  0.000 -0.000  0.001  0.528
atomic mag. moment =     2.666966
atom   10   Tr[ns(na)] (up, down, total) =   4.97624  2.31270  7.28895
   spin  1
    eigenvalues: 
  0.994  0.994  0.995  0.996  0.997
    eigenvectors:
  0.001  0.002  0.000  0.000  0.996
  0.138  0.855  0.003  0.003  0.001
  0.848  0.136  0.006  0.009  0.002
  0.011  0.000  0.001  0.988  0.000
  0.003  0.006  0.991  0.000  0.000
    occupations:
  0.997  0.000 -0.000  0.000 -0.000
  0.000  0.994 -0.000  0.000  0.000
 -0.000 -0.000  0.994  0.000 -0.000
  0.000  0.000  0.000  0.996 -0.000
 -0.000  0.000 -0.000 -0.000  0.995
   spin  2
    eigenvalues: 
  0.358  0.390  0.515  0.520  0.529
    eigenvectors:
  0.999  0.000  0.000  0.000  0.000
  0.000  0.000  0.497  0.502  0.001
  0.000  0.000  0.501  0.498  0.001
  0.000  1.000  0.000  0.000  0.000
  0.000  0.000  0.001  0.000  0.998
    occupations:
  0.358  0.001 -0.003  0.000  0.003
  0.001  0.518 -0.003 -0.001 -0.000
 -0.003 -0.003  0.518  0.000 -0.000
  0.000 -0.001  0.000  0.390 -0.001
  0.003 -0.000 -0.000 -0.001  0.529
atomic mag. moment =     2.663538
atom   11   Tr[ns(na)] (up, down, total) =   4.97577  2.30120  7.27697
   spin  1
    eigenvalues: 
  0.994  0.994  0.995  0.996  0.997
    eigenvectors:
  0.001  0.003  0.000  0.002  0.994
  0.127  0.859  0.011  0.001  0.001
  0.870  0.122  0.005  0.000  0.003
  0.000  0.001  0.002  0.996  0.002
  0.001  0.015  0.981  0.002  0.001
    occupations:
  0.997 -0.000  0.000  0.000 -0.000
 -0.000  0.994 -0.000 -0.000 -0.000
  0.000 -0.000  0.994 -0.000  0.000
  0.000 -0.000 -0.000  0.996  0.000
 -0.000 -0.000  0.000  0.000  0.995
   spin  2
    eigenvalues: 
  0.355  0.390  0.513  0.518  0.525
    eigenvectors:
  0.999  0.000  0.000  0.000  0.001
  0.000  0.000  0.456  0.531  0.013
  0.000  0.000  0.513  0.468  0.019
  0.000  1.000  0.000  0.000  0.000
  0.001  0.000  0.031  0.000  0.968
    occupations:
  0.356 -0.003  0.002 -0.000  0.004
 -0.003  0.516 -0.002  0.001 -0.001
  0.002 -0.002  0.515 -0.000 -0.002
 -0.000  0.001 -0.000  0.390  0.001
  0.004 -0.001 -0.002  0.001  0.524
atomic mag. moment =     2.674571
atom   12   Tr[ns(na)] (up, down, total) =   4.97584  2.29921  7.27505
   spin  1
    eigenvalues: 
  0.994  0.994  0.995  0.996  0.997
    eigenvectors:
  0.001  0.002  0.000  0.001  0.995
  0.108  0.881  0.009  0.001  0.001
  0.890  0.103  0.005  0.000  0.002
  0.000  0.001  0.001  0.997  0.001
  0.001  0.012  0.985  0.001  0.001
    occupations:
  0.997 -0.000 -0.000  0.000  0.000
 -0.000  0.994  0.000 -0.000  0.000
 -0.000  0.000  0.994 -0.000  0.000
  0.000 -0.000 -0.000  0.996 -0.000
  0.000  0.000  0.000 -0.000  0.995
   spin  2
    eigenvalues: 
  0.355  0.390  0.512  0.518  0.524
    eigenvectors:
  0.999  0.000  0.000  0.000  0.001
  0.000  0.000  0.494  0.501  0.005
  0.000  0.000  0.476  0.492  0.032
  0.000  1.000  0.000  0.000  0.000
  0.001  0.000  0.030  0.006  0.963
    occupations:
  0.356 -0.002 -0.002 -0.000 -0.004
 -0.002  0.515  0.003  0.001  0.001
 -0.002  0.003  0.515  0.000 -0.002
 -0.000  0.001  0.000  0.390 -0.001
 -0.004  0.001 -0.002 -0.001  0.524
atomic mag. moment =     2.676623
atom   13   Tr[ns(na)] (up, down, total) =   4.97328  2.11189  7.08517
   spin  1
    eigenvalues: 
  0.991  0.995  0.995  0.995  0.996
    eigenvectors:
  0.998  0.000  0.001  0.000  0.001
  0.001  0.000  0.962  0.000  0.037
  0.000  0.098  0.000  0.902  0.000
  0.001  0.000  0.037  0.000  0.962
  0.000  0.902  0.000  0.098  0.000
    occupations:
  0.991 -0.000 -0.000  0.000 -0.000
 -0.000  0.995  0.000 -0.000  0.000
 -0.000  0.000  0.995 -0.000  0.000
  0.000 -0.000 -0.000  0.996  0.000
 -0.000  0.000  0.000  0.000  0.995
   spin  2
    eigenvalues: 
  0.327  0.363  0.468  0.475  0.480
    eigenvectors:
  1.000  0.000  0.000  0.000  0.000
  0.000  0.000  0.002  0.003  0.995
  0.000  0.000  0.010  0.987  0.003
  0.000  1.000  0.000  0.000  0.000
  0.000  0.000  0.988  0.010  0.001
    occupations:
  0.327 -0.002  0.000 -0.000  0.000
 -0.002  0.480 -0.000  0.002 -0.000
  0.000 -0.000  0.475 -0.000 -0.001
 -0.000  0.002 -0.000  0.363  0.000
  0.000 -0.000 -0.001  0.000  0.468
atomic mag. moment =     2.861394
atom   14   Tr[ns(na)] (up, down, total) =   4.97242  2.32100  7.29342
   spin  1
    eigenvalues: 
  0.991  0.994  0.995  0.996  0.996
    eigenvectors:
  0.678  0.317  0.000  0.000  0.005
  0.317  0.682  0.000  0.000  0.001
  0.000  0.000  0.584  0.416  0.000
  0.005  0.000  0.000  0.000  0.995
  0.000  0.000  0.416  0.584  0.000
    occupations:
  0.992  0.001  0.000  0.000 -0.000
  0.001  0.993  0.000 -0.000  0.000
  0.000  0.000  0.995 -0.000  0.000
  0.000 -0.000 -0.000  0.996 -0.000
 -0.000  0.000  0.000 -0.000  0.995
   spin  2
    eigenvalues: 
  0.358  0.381  0.497  0.542  0.543
    eigenvectors:
  0.981  0.004  0.000  0.014  0.000
  0.015  0.000  0.000  0.984  0.001
  0.000  0.000  0.014  0.000  0.985
  0.004  0.996  0.000  0.001  0.000
  0.000  0.000  0.986  0.000  0.014
    occupations:
  0.361  0.022  0.000 -0.001 -0.000
  0.022  0.539 -0.000  0.004 -0.000
  0.000 -0.000  0.543  0.000 -0.006
 -0.001  0.004  0.000  0.381 -0.000
 -0.000 -0.000 -0.006 -0.000  0.497
atomic mag. moment =     2.651419
atom   15   Tr[ns(na)] (up, down, total) =   4.97165  2.39556  7.36721
   spin  1
    eigenvalues: 
  0.991  0.994  0.995  0.996  0.996
    eigenvectors:
  0.992  0.000  0.002  0.000  0.006
  0.002  0.000  0.995  0.000  0.003
  0.000  0.991  0.000  0.009  0.000
  0.006  0.000  0.002  0.000  0.991
  0.000  0.009  0.000  0.991  0.000
    occupations:
  0.991 -0.000 -0.000 -0.000 -0.000
 -0.000  0.995  0.000 -0.000 -0.000
 -0.000  0.000  0.994 -0.000 -0.000
 -0.000 -0.000 -0.000  0.996 -0.000
 -0.000 -0.000 -0.000 -0.000  0.996
   spin  2
    eigenvalues: 
  0.370  0.388  0.517  0.556  0.564
    eigenvectors:
  0.987  0.013  0.000  0.000  0.000
  0.000  0.000  0.000  0.999  0.000
  0.000  0.000  0.000  0.000  1.000
  0.013  0.987  0.000  0.000  0.000
  0.000  0.000  1.000  0.000  0.000
    occupations:
  0.370 -0.003 -0.000 -0.002 -0.000
 -0.003  0.556 -0.000 -0.000 -0.001
 -0.000 -0.000  0.564 -0.000  0.000
 -0.002 -0.000 -0.000  0.388 -0.000
 -0.000 -0.001  0.000 -0.000  0.517
atomic mag. moment =     2.576083
atom   16   Tr[ns(na)] (up, down, total) =   4.97831  2.43477  7.41308
   spin  1
    eigenvalues: 
  0.995  0.995  0.995  0.997  0.997
    eigenvectors:
  0.000  0.000  0.010  0.336  0.653
  0.000  0.038  0.918  0.009  0.036
  0.132  0.834  0.034  0.000  0.000
  0.000  0.002  0.032  0.655  0.311
  0.868  0.127  0.006  0.000  0.000
    occupations:
  0.997  0.000 -0.000  0.000 -0.000
  0.000  0.995 -0.000  0.000 -0.000
 -0.000 -0.000  0.995  0.000  0.000
  0.000  0.000  0.000  0.997  0.000
 -0.000 -0.000  0.000  0.000  0.995
   spin  2
    eigenvalues: 
  0.387  0.428  0.528  0.542  0.549
    eigenvectors:
  0.001  0.999  0.000  0.000  0.000
  0.001  0.000  0.001  0.995  0.002
  0.000  0.000  0.006  0.002  0.992
  0.998  0.001  0.000  0.001  0.000
  0.000  0.000  0.993  0.001  0.006
    occupations:
  0.428  0.001 -0.001 -0.001  0.000
  0.001  0.542  0.000 -0.006 -0.001
 -0.001  0.000  0.549  0.000 -0.002
 -0.001 -0.006  0.000  0.388 -0.000
  0.000 -0.001 -0.002 -0.000  0.528
atomic mag. moment =     2.543541
atom   17   Tr[ns(na)] (up, down, total) =   4.96621  1.19178  6.15798
   spin  1
    eigenvalues: 
  0.986  0.993  0.995  0.995  0.996
    eigenvectors:
  0.020  0.159  0.676  0.142  0.002
  0.360  0.234  0.023  0.382  0.000
  0.248  0.556  0.195  0.000  0.002
  0.002  0.000  0.003  0.001  0.995
  0.370  0.051  0.103  0.474  0.001
    occupations:
  0.995 -0.000 -0.001  0.000  0.001
 -0.000  0.991 -0.002  0.000  0.004
 -0.001 -0.002  0.992  0.000  0.003
  0.000  0.000  0.000  0.996 -0.000
  0.001  0.004  0.003 -0.000  0.992
   spin  2
    eigenvalues: 
  0.190  0.202  0.227  0.280  0.293
    eigenvectors:
  0.600  0.042  0.342  0.001  0.015
  0.188  0.362  0.055  0.000  0.395
  0.024  0.531  0.118  0.104  0.223
  0.000  0.064  0.006  0.889  0.040
  0.188  0.000  0.479  0.006  0.327
    occupations:
  0.205 -0.014 -0.013  0.001 -0.008
 -0.014  0.237  0.028 -0.013 -0.031
 -0.013  0.028  0.233  0.015 -0.021
  0.001 -0.013  0.015  0.276  0.003
 -0.008 -0.031 -0.021  0.003  0.242
atomic mag. moment =     3.774431
atom   18   Tr[ns(na)] (up, down, total) =   4.96630  1.19178  6.15808
   spin  1
    eigenvalues: 
  0.986  0.993  0.995  0.995  0.996
    eigenvectors:
  0.020  0.157  0.587  0.234  0.002
  0.357  0.238  0.053  0.351  0.000
  0.252  0.554  0.188  0.004  0.002
  0.002  0.000  0.002  0.002  0.994
  0.369  0.051  0.169  0.409  0.001
    occupations:
  0.995 -0.000  0.001  0.000 -0.001
 -0.000  0.991  0.002  0.000 -0.004
  0.001  0.002  0.992 -0.000  0.003
  0.000  0.000 -0.000  0.996  0.000
 -0.001 -0.004  0.003  0.000  0.992
   spin  2
    eigenvalues: 
  0.190  0.202  0.227  0.281  0.292
    eigenvectors:
  0.593  0.053  0.337  0.001  0.015
  0.202  0.351  0.052  0.001  0.394
  0.019  0.529  0.125  0.102  0.225
  0.001  0.066  0.007  0.892  0.034
  0.185  0.000  0.478  0.004  0.332
    occupations:
  0.205 -0.015  0.013  0.001  0.008
 -0.015  0.236 -0.028 -0.013  0.031
  0.013 -0.028  0.233 -0.015 -0.021
  0.001 -0.013 -0.015  0.276 -0.003
  0.008  0.031 -0.021 -0.003  0.242
atomic mag. moment =     3.774530
atom   19   Tr[ns(na)] (up, down, total) =   4.96107  1.26706  6.22813
   spin  1
    eigenvalues: 
  0.983  0.992  0.994  0.996  0.996
    eigenvectors:
  0.005  0.348  0.083  0.553  0.012
  0.140  0.541  0.159  0.140  0.021
  0.251  0.001  0.659  0.089  0.000
  0.003  0.008  0.003  0.039  0.948
  0.602  0.102  0.096  0.180  0.019
    occupations:
  0.994  0.001 -0.000 -0.000  0.001
  0.001  0.992  0.002  0.000  0.003
 -0.000  0.002  0.991  0.000 -0.004
 -0.000  0.000  0.000  0.996  0.001
  0.001  0.003 -0.004  0.001  0.987
   spin  2
    eigenvalues: 
  0.192  0.231  0.234  0.297  0.312
    eigenvectors:
  0.756  0.081  0.151  0.000  0.012
  0.040  0.259  0.510  0.057  0.133
  0.142  0.530  0.024  0.004  0.301
  0.000  0.035  0.020  0.937  0.008
  0.062  0.095  0.295  0.002  0.546
    occupations:
  0.203  0.011 -0.018 -0.000  0.002
  0.011  0.246 -0.013  0.012 -0.023
 -0.018 -0.013  0.250  0.008  0.036
 -0.000  0.012  0.008  0.294  0.002
  0.002 -0.023  0.036  0.002  0.274
atomic mag. moment =     3.694013
atom   20   Tr[ns(na)] (up, down, total) =   4.96110  1.26769  6.22879
   spin  1
    eigenvalues: 
  0.983  0.993  0.994  0.996  0.996
    eigenvectors:
  0.005  0.345  0.081  0.556  0.014
  0.138  0.541  0.163  0.136  0.022
  0.250  0.002  0.659  0.089  0.000
  0.003  0.008  0.003  0.043  0.943
  0.605  0.104  0.095  0.176  0.021
    occupations:
  0.994  0.001  0.000 -0.000 -0.001
  0.001  0.992 -0.002  0.000 -0.003
  0.000 -0.002  0.991 -0.000 -0.004
 -0.000  0.000 -0.000  0.996 -0.001
 -0.001 -0.003 -0.004 -0.001  0.987
   spin  2
    eigenvalues: 
  0.193  0.231  0.234  0.297  0.313
    eigenvectors:
  0.752  0.078  0.157  0.000  0.012
  0.041  0.274  0.495  0.052  0.138
  0.144  0.525  0.027  0.005  0.298
  0.000  0.035  0.017  0.941  0.006
  0.063  0.087  0.303  0.002  0.545
    occupations:
  0.204  0.011  0.018 -0.001 -0.002
  0.011  0.246  0.013  0.012  0.024
  0.018  0.013  0.250 -0.008  0.036
 -0.001  0.012 -0.008  0.294 -0.002
 -0.002  0.024  0.036 -0.002  0.274
atomic mag. moment =     3.693404
N of occupied +U levels = 136.6036054
 --- exit write_ns ---

     negative rho (up, down):  0.710E-09 0.519E-03
 --- in v_hubbard ---
Hubbard energy    0.0000
 -------

     total cpu time spent up to now is      174.8 secs

     total energy              =   -6648.91387961 Ry
     Harris-Foulkes estimate   =   -6638.75987541 Ry
     estimated scf accuracy    <      29.75646800 Ry

     total magnetization       =    66.01 Bohr mag/cell
     absolute magnetization    =    70.05 Bohr mag/cell

     iteration #  2     ecut=    95.00 Ry     beta=0.50
     Davidson diagonalization with overlap
     ethr =  9.07E-03,  avg # of iterations =  1.0
 --- enter write_ns ---
 LDA+U parameters:
U( 1)     =  0.00000000
alpha( 1) =  0.00000000
atom    1   Tr[ns(na)] (up, down, total) =   4.97695  1.64552  6.62247
   spin  1
    eigenvalues: 
  0.994  0.995  0.995  0.996  0.997
    eigenvectors:
  0.994  0.000  0.004  0.001  0.000
  0.005  0.009  0.983  0.003  0.000
  0.000  0.990  0.009  0.001  0.000
  0.000  0.000  0.000  0.002  0.998
  0.001  0.001  0.003  0.993  0.002
    occupations:
  0.994  0.000  0.000 -0.000 -0.000
  0.000  0.995 -0.000 -0.000 -0.000
  0.000 -0.000  0.995  0.000 -0.000
 -0.000 -0.000  0.000  0.997 -0.000
 -0.000 -0.000 -0.000 -0.000  0.996
   spin  2
    eigenvalues: 
  0.286  0.287  0.316  0.344  0.413
    eigenvectors:
  0.000  0.000  1.000  0.000  0.000
  0.416  0.584  0.000  0.000  0.000
  0.584  0.416  0.000  0.000  0.000
  0.000  0.000  0.000  1.000  0.000
  0.000  0.000  0.000  0.000  1.000
    occupations:
  0.316 -0.000 -0.000  0.000  0.000
 -0.000  0.286  0.000 -0.000  0.000
 -0.000  0.000  0.286  0.000 -0.000
  0.000 -0.000  0.000  0.344 -0.000
  0.000  0.000 -0.000 -0.000  0.413
atomic mag. moment =     3.331435
atom    2   Tr[ns(na)] (up, down, total) =   4.97699  1.64556  6.62254
   spin  1
    eigenvalues: 
  0.994  0.995  0.995  0.996  0.997
    eigenvectors:
  0.997  0.000  0.001  0.001  0.000
  0.002  0.019  0.977  0.002  0.000
  0.000  0.980  0.019  0.001  0.000
  0.000  0.000  0.000  0.000  1.000
  0.001  0.000  0.003  0.996  0.000
    occupations:
  0.994  0.000  0.000 -0.000  0.000
  0.000  0.995 -0.000 -0.000  0.000
  0.000 -0.000  0.995  0.000 -0.000
 -0.000 -0.000  0.000  0.997  0.000
  0.000  0.000 -0.000  0.000  0.996
   spin  2
    eigenvalues: 
  0.286  0.287  0.316  0.344  0.413
    eigenvectors:
  0.000  0.000  1.000  0.000  0.000
  0.412  0.588  0.000  0.000  0.000
  0.588  0.412  0.000  0.000  0.000
  0.000  0.000  0.000  1.000  0.000
  0.000  0.000  0.000  0.000  1.000
    occupations:
  0.316  0.000  0.000 -0.000 -0.000
  0.000  0.286 -0.001 -0.000 -0.000
  0.000 -0.001  0.286 -0.000  0.001
 -0.000 -0.000 -0.000  0.344  0.000
 -0.000 -0.000  0.001  0.000  0.413
atomic mag. moment =     3.331429
atom    3   Tr[ns(na)] (up, down, total) =   4.97670  1.64643  6.62312
   spin  1
    eigenvalues: 
  0.994  0.995  0.995  0.996  0.997
    eigenvectors:
  0.992  0.004  0.002  0.002  0.000
  0.002  0.813  0.182  0.003  0.000
  0.005  0.178  0.815  0.001  0.000
  0.000  0.000  0.000  0.003  0.997
  0.002  0.005  0.000  0.991  0.003
    occupations:
  0.994 -0.000  0.000  0.000  0.000
 -0.000  0.995  0.000  0.000 -0.000
  0.000  0.000  0.995  0.000  0.000
  0.000  0.000  0.000  0.997 -0.000
  0.000 -0.000  0.000 -0.000  0.996
   spin  2
    eigenvalues: 
  0.286  0.287  0.316  0.344  0.413
    eigenvectors:
  0.000  0.000  1.000  0.000  0.000
  0.822  0.178  0.000  0.000  0.000
  0.178  0.822  0.000  0.000  0.000
  0.000  0.000  0.000  1.000  0.000
  0.000  0.000  0.000  0.000  1.000
    occupations:
  0.316  0.000  0.000 -0.000 -0.000
  0.000  0.286 -0.000  0.000 -0.000
  0.000 -0.000  0.287  0.000  0.000
 -0.000  0.000  0.000  0.344 -0.000
 -0.000 -0.000  0.000 -0.000  0.413
atomic mag. moment =     3.330270
atom    4   Tr[ns(na)] (up, down, total) =   4.97674  1.64811  6.62484
   spin  1
    eigenvalues: 
  0.994  0.995  0.995  0.996  0.997
    eigenvectors:
  0.992  0.004  0.003  0.001  0.000
  0.001  0.831  0.164  0.004  0.000
  0.006  0.160  0.832  0.001  0.000
  0.000  0.000  0.000  0.001  0.999
  0.001  0.005  0.000  0.993  0.001
    occupations:
  0.994 -0.000 -0.000  0.000 -0.000
 -0.000  0.995 -0.000  0.000  0.000
 -0.000 -0.000  0.995 -0.000  0.000
  0.000  0.000 -0.000  0.997  0.000
 -0.000  0.000  0.000  0.000  0.996
   spin  2
    eigenvalues: 
  0.287  0.287  0.316  0.344  0.414
    eigenvectors:
  0.000  0.000  1.000  0.000  0.000
  0.838  0.162  0.000  0.000  0.000
  0.162  0.838  0.000  0.000  0.000
  0.000  0.000  0.000  1.000  0.000
  0.000  0.000  0.000  0.000  1.000
    occupations:
  0.316 -0.000 -0.000  0.000  0.000
 -0.000  0.287  0.000  0.000  0.000
 -0.000  0.000  0.287 -0.000 -0.000
  0.000  0.000 -0.000  0.344  0.000
  0.000  0.000 -0.000  0.000  0.414
atomic mag. moment =     3.328631
atom    5   Tr[ns(na)] (up, down, total) =   4.95333  2.13232  7.08565
   spin  1
    eigenvalues: 
  0.989  0.989  0.991  0.991  0.992
    eigenvectors:
  0.000  0.011  0.001  0.000  0.987
  0.000  0.987  0.002  0.000  0.011
  0.978  0.000  0.000  0.022  0.000
  0.000  0.002  0.996  0.001  0.002
  0.022  0.000  0.001  0.977  0.000
    occupations:
  0.992 -0.000  0.000 -0.000 -0.000
 -0.000  0.990 -0.000 -0.000  0.000
  0.000 -0.000  0.989  0.000  0.000
 -0.000 -0.000  0.000  0.991 -0.000
 -0.000  0.000  0.000 -0.000  0.991
   spin  2
    eigenvalues: 
  0.348  0.361  0.473  0.474  0.477
    eigenvectors:
  0.000  1.000  0.000  0.000  0.000
  0.000  0.000  0.003  0.994  0.003
  0.000  0.000  0.989  0.002  0.008
  1.000  0.000  0.000  0.000  0.000
  0.000  0.000  0.008  0.003  0.989
    occupations:
  0.361 -0.000 -0.000 -0.000  0.000
 -0.000  0.474  0.000 -0.000 -0.000
 -0.000  0.000  0.473 -0.000 -0.000
 -0.000 -0.000 -0.000  0.348 -0.000
  0.000 -0.000 -0.000 -0.000  0.476
atomic mag. moment =     2.821012
atom    6   Tr[ns(na)] (up, down, total) =   4.95313  2.11654  7.06967
   spin  1
    eigenvalues: 
  0.989  0.990  0.990  0.991  0.993
    eigenvectors:
  0.000  0.000  0.000  0.000  1.000
  0.979  0.021  0.000  0.000  0.000
  0.000  0.000  0.998  0.001  0.000
  0.021  0.978  0.000  0.000  0.000
  0.000  0.000  0.001  0.999  0.000
    occupations:
  0.993 -0.000  0.000 -0.000 -0.000
 -0.000  0.989  0.000 -0.000 -0.000
  0.000  0.000  0.990 -0.000  0.000
 -0.000 -0.000 -0.000  0.990  0.000
 -0.000 -0.000  0.000  0.000  0.991
   spin  2
    eigenvalues: 
  0.344  0.357  0.469  0.473  0.474
    eigenvectors:
  0.000  1.000  0.000  0.000  0.000
  0.000  0.000  0.000  0.998  0.002
  0.000  0.000  0.006  0.002  0.993
  1.000  0.000  0.000  0.000  0.000
  0.000  0.000  0.994  0.001  0.005
    occupations:
  0.357 -0.000  0.000  0.000 -0.000
 -0.000  0.473 -0.000 -0.000 -0.000
  0.000 -0.000  0.474  0.000 -0.000
  0.000 -0.000  0.000  0.344 -0.000
 -0.000 -0.000 -0.000 -0.000  0.469
atomic mag. moment =     2.836588
atom    7   Tr[ns(na)] (up, down, total) =   4.95346  2.12072  7.07418
   spin  1
    eigenvalues: 
  0.989  0.990  0.990  0.991  0.993
    eigenvectors:
  0.000  0.000  0.019  0.000  0.981
  0.000  0.021  0.957  0.004  0.018
  0.998  0.000  0.000  0.002  0.000
  0.000  0.977  0.020  0.001  0.002
  0.002  0.001  0.005  0.993  0.000
    occupations:
  0.993  0.000 -0.000  0.000 -0.000
  0.000  0.990 -0.000  0.000  0.000
 -0.000 -0.000  0.989  0.000 -0.000
  0.000  0.000  0.000  0.990  0.000
 -0.000  0.000 -0.000  0.000  0.991
   spin  2
    eigenvalues: 
  0.344  0.359  0.470  0.473  0.474
    eigenvectors:
  0.000  1.000  0.000  0.000  0.000
  0.000  0.000  0.000  0.000  1.000
  0.000  0.000  0.069  0.931  0.000
  1.000  0.000  0.000  0.000  0.000
  0.000  0.000  0.931  0.069  0.000
    occupations:
  0.359 -0.000 -0.000  0.000 -0.000
 -0.000  0.474  0.000  0.000  0.000
 -0.000  0.000  0.473 -0.000  0.001
  0.000  0.000 -0.000  0.344  0.000
 -0.000  0.000  0.001  0.000  0.470
atomic mag. moment =     2.832737
atom    8   Tr[ns(na)] (up, down, total) =   4.95289  2.12954  7.08243
   spin  1
    eigenvalues: 
  0.990  0.990  0.990  0.991  0.992
    eigenvectors:
  0.002  0.000  0.000  0.000  0.998
  0.855  0.019  0.124  0.001  0.001
  0.021  0.977  0.000  0.002  0.000
  0.122  0.002  0.875  0.000  0.000
  0.000  0.002  0.000  0.998  0.000
    occupations:
  0.992  0.000  0.000  0.000  0.000
  0.000  0.990  0.000 -0.000 -0.000
  0.000  0.000  0.990  0.000 -0.000
  0.000 -0.000  0.000  0.990  0.000
  0.000 -0.000 -0.000  0.000  0.991
   spin  2
    eigenvalues: 
  0.346  0.364  0.472  0.472  0.476
    eigenvectors:
  0.000  1.000  0.000  0.000  0.000
  0.000  0.000  0.986  0.014  0.000
  0.000  0.000  0.013  0.976  0.011
  1.000  0.000  0.000  0.000  0.000
  0.000  0.000  0.001  0.010  0.989
    occupations:
  0.364 -0.000 -0.000  0.000 -0.000
 -0.000  0.472  0.000 -0.000 -0.000
 -0.000  0.000  0.472 -0.000  0.000
  0.000 -0.000 -0.000  0.346  0.000
 -0.000 -0.000  0.000  0.000  0.475
atomic mag. moment =     2.823352
atom    9   Tr[ns(na)] (up, down, total) =   4.95435  2.14911  7.10346
   spin  1
    eigenvalues: 
  0.989  0.990  0.991  0.992  0.994
    eigenvectors:
  0.000  0.024  0.033  0.005  0.938
  0.490  0.428  0.045  0.016  0.020
  0.450  0.354  0.136  0.031  0.030
  0.031  0.005  0.067  0.895  0.001
  0.028  0.189  0.718  0.053  0.012
    occupations:
  0.994  0.001  0.001 -0.000 -0.000
  0.001  0.989  0.001  0.000 -0.000
  0.001  0.001  0.990 -0.000 -0.001
 -0.000  0.000 -0.000  0.991  0.000
 -0.000 -0.000 -0.001  0.000  0.991
   spin  2
    eigenvalues: 
  0.341  0.381  0.473  0.475  0.479
    eigenvectors:
  0.998  0.000  0.000  0.000  0.001
  0.000  0.000  0.160  0.348  0.491
  0.001  0.000  0.053  0.457  0.490
  0.000  1.000  0.000  0.000  0.000
  0.001  0.000  0.787  0.194  0.018
    occupations:
  0.342  0.003  0.003  0.000 -0.004
  0.003  0.477  0.002  0.000 -0.001
  0.003  0.002  0.477 -0.000  0.000
  0.000  0.000 -0.000  0.381  0.001
 -0.004 -0.001  0.000  0.001  0.473
atomic mag. moment =     2.805236
atom   10   Tr[ns(na)] (up, down, total) =   4.95416  2.14571  7.09987
   spin  1
    eigenvalues: 
  0.989  0.990  0.991  0.991  0.994
    eigenvectors:
  0.000  0.024  0.035  0.004  0.937
  0.514  0.407  0.042  0.017  0.020
  0.428  0.376  0.137  0.028  0.030
  0.031  0.005  0.063  0.900  0.001
  0.027  0.188  0.724  0.050  0.012
    occupations:
  0.994  0.001 -0.001 -0.000  0.000
  0.001  0.989 -0.001  0.000  0.000
 -0.001 -0.001  0.990  0.000 -0.001
 -0.000  0.000  0.000  0.991 -0.000
  0.000  0.000 -0.001 -0.000  0.990
   spin  2
    eigenvalues: 
  0.341  0.380  0.472  0.474  0.478
    eigenvectors:
  0.998  0.000  0.000  0.000  0.001
  0.000  0.000  0.179  0.320  0.500
  0.000  0.000  0.071  0.447  0.481
  0.000  1.000  0.000  0.000  0.000
  0.001  0.000  0.750  0.232  0.017
    occupations:
  0.341  0.003 -0.003  0.000  0.004
  0.003  0.476 -0.002  0.000  0.001
 -0.003 -0.002  0.476  0.001 -0.000
  0.000  0.000  0.001  0.380 -0.001
  0.004  0.001 -0.000 -0.001  0.473
atomic mag. moment =     2.808445
atom   11   Tr[ns(na)] (up, down, total) =   4.95515  2.15099  7.10613
   spin  1
    eigenvalues: 
  0.989  0.990  0.991  0.992  0.994
    eigenvectors:
  0.008  0.003  0.027  0.003  0.959
  0.847  0.017  0.077  0.040  0.019
  0.001  0.807  0.147  0.034  0.011
  0.022  0.057  0.010  0.910  0.001
  0.121  0.117  0.739  0.014  0.010
    occupations:
  0.994 -0.000  0.000  0.000  0.000
 -0.000  0.990 -0.000 -0.000 -0.001
  0.000 -0.000  0.990 -0.000  0.000
  0.000 -0.000 -0.000  0.992  0.000
  0.000 -0.001  0.000  0.000  0.990
   spin  2
    eigenvalues: 
  0.341  0.383  0.470  0.476  0.481
    eigenvectors:
  0.998  0.000  0.001  0.000  0.001
  0.000  0.000  0.118  0.333  0.548
  0.001  0.000  0.082  0.471  0.446
  0.000  1.000  0.000  0.000  0.000
  0.001  0.000  0.799  0.195  0.005
    occupations:
  0.341 -0.003  0.003 -0.000  0.004
 -0.003  0.478 -0.003 -0.000 -0.002
  0.003 -0.003  0.478 -0.001 -0.001
 -0.000 -0.000 -0.001  0.383  0.001
  0.004 -0.002 -0.001  0.001  0.471
atomic mag. moment =     2.804158
atom   12   Tr[ns(na)] (up, down, total) =   4.95528  2.15222  7.10750
   spin  1
    eigenvalues: 
  0.989  0.990  0.991  0.992  0.994
    eigenvectors:
  0.009  0.003  0.027  0.002  0.960
  0.849  0.015  0.078  0.039  0.019
  0.001  0.816  0.139  0.034  0.011
  0.022  0.057  0.011  0.910  0.001
  0.120  0.110  0.745  0.015  0.010
    occupations:
  0.994 -0.001 -0.000  0.000 -0.000
 -0.001  0.990  0.000 -0.000  0.001
 -0.000  0.000  0.990  0.000  0.000
  0.000 -0.000  0.000  0.992 -0.000
 -0.000  0.001  0.000 -0.000  0.991
   spin  2
    eigenvalues: 
  0.341  0.383  0.470  0.476  0.482
    eigenvectors:
  0.998  0.000  0.001  0.000  0.001
  0.000  0.000  0.114  0.362  0.524
  0.001  0.000  0.087  0.439  0.473
  0.000  1.000  0.000  0.000  0.000
  0.001  0.000  0.798  0.199  0.002
    occupations:
  0.341 -0.003 -0.003 -0.000 -0.004
 -0.003  0.478  0.003 -0.000  0.002
 -0.003  0.003  0.478  0.001 -0.002
 -0.000 -0.000  0.001  0.383 -0.001
 -0.004  0.002 -0.002 -0.001  0.471
atomic mag. moment =     2.803063
atom   13   Tr[ns(na)] (up, down, total) =   4.95372  2.09149  7.04521
   spin  1
    eigenvalues: 
  0.983  0.992  0.993  0.993  0.993
    eigenvectors:
  1.000  0.000  0.000  0.000  0.000
  0.000  0.000  0.939  0.009  0.052
  0.000  0.004  0.006  0.983  0.007
  0.000  0.000  0.055  0.004  0.941
  0.000  0.996  0.000  0.004  0.000
    occupations:
  0.983 -0.000 -0.000  0.000  0.000
 -0.000  0.993  0.000 -0.000  0.000
 -0.000  0.000  0.993  0.000  0.000
  0.000 -0.000  0.000  0.993 -0.000
  0.000  0.000  0.000 -0.000  0.992
   spin  2
    eigenvalues: 
  0.332  0.345  0.468  0.470  0.477
    eigenvectors:
  1.000  0.000  0.000  0.000  0.000
  0.000  0.000  0.001  0.000  0.999
  0.000  0.000  0.157  0.843  0.000
  0.000  1.000  0.000  0.000  0.000
  0.000  0.000  0.843  0.157  0.001
    occupations:
  0.332 -0.002  0.000 -0.000  0.000
 -0.002  0.477 -0.000  0.001 -0.000
  0.000 -0.000  0.470 -0.000 -0.001
 -0.000  0.001 -0.000  0.345  0.000
  0.000 -0.000 -0.001  0.000  0.468
atomic mag. moment =     2.862235
atom   14   Tr[ns(na)] (up, down, total) =   4.94590  2.14280  7.08871
   spin  1
    eigenvalues: 
  0.982  0.989  0.990  0.992  0.992
    eigenvectors:
  0.896  0.088  0.000  0.000  0.015
  0.086  0.911  0.000  0.000  0.002
  0.000  0.000  0.016  0.984  0.000
  0.018  0.000  0.000  0.000  0.982
  0.000  0.000  0.984  0.016  0.000
    occupations:
  0.983  0.002  0.000  0.001 -0.000
  0.002  0.989  0.000 -0.000  0.000
  0.000  0.000  0.992 -0.000  0.000
  0.001 -0.000 -0.000  0.992  0.000
 -0.000  0.000  0.000  0.000  0.990
   spin  2
    eigenvalues: 
  0.340  0.340  0.467  0.497  0.498
    eigenvectors:
  0.446  0.544  0.000  0.000  0.011
  0.007  0.004  0.000  0.001  0.988
  0.000  0.000  0.024  0.975  0.001
  0.547  0.452  0.000  0.000  0.000
  0.000  0.000  0.976  0.024  0.000
    occupations:
  0.342  0.016  0.000 -0.000 -0.000
  0.016  0.497 -0.000  0.003 -0.000
  0.000 -0.000  0.496  0.000 -0.005
 -0.000  0.003  0.000  0.340 -0.000
 -0.000 -0.000 -0.005 -0.000  0.468
atomic mag. moment =     2.803104
atom   15   Tr[ns(na)] (up, down, total) =   4.94120  2.18116  7.12236
   spin  1
    eigenvalues: 
  0.981  0.987  0.990  0.992  0.992
    eigenvectors:
  0.970  0.000  0.000  0.003  0.028
  0.003  0.000  0.000  0.996  0.001
  0.000  0.654  0.346  0.000  0.000
  0.027  0.000  0.000  0.002  0.971
  0.000  0.346  0.654  0.000  0.000
    occupations:
  0.981 -0.001 -0.000 -0.002 -0.000
 -0.001  0.991 -0.000 -0.000  0.000
 -0.000 -0.000  0.988 -0.000 -0.001
 -0.002 -0.000 -0.000  0.992 -0.000
 -0.000  0.000 -0.001 -0.000  0.989
   spin  2
    eigenvalues: 
  0.341  0.347  0.477  0.505  0.512
    eigenvectors:
  0.075  0.925  0.000  0.000  0.000
  0.000  0.000  0.000  1.000  0.000
  0.000  0.000  0.000  0.000  0.999
  0.925  0.075  0.000  0.000  0.000
  0.000  0.000  1.000  0.000  0.000
    occupations:
  0.347 -0.001 -0.000 -0.002 -0.000
 -0.001  0.505 -0.000  0.001 -0.000
 -0.000 -0.000  0.512 -0.000  0.001
 -0.002  0.001 -0.000  0.342 -0.000
 -0.000 -0.000  0.001 -0.000  0.477
atomic mag. moment =     2.760039
atom   16   Tr[ns(na)] (up, down, total) =   4.94936  2.12906  7.07842
   spin  1
    eigenvalues: 
  0.987  0.989  0.990  0.991  0.993
    eigenvectors:
  0.000  0.019  0.000  0.108  0.872
  0.000  0.518  0.000  0.377  0.105
  0.000  0.000  1.000  0.000  0.000
  0.000  0.463  0.000  0.514  0.023
  1.000  0.000  0.000  0.000  0.000
    occupations:
  0.992  0.001 -0.000 -0.000  0.000
  0.001  0.990  0.000  0.001 -0.000
 -0.000  0.000  0.990  0.000  0.000
 -0.000  0.001  0.000  0.990 -0.000
  0.000 -0.000  0.000 -0.000  0.987
   spin  2
    eigenvalues: 
  0.336  0.359  0.468  0.479  0.487
    eigenvectors:
  0.001  0.999  0.000  0.000  0.000
  0.001  0.000  0.000  0.999  0.000
  0.000  0.000  0.006  0.000  0.993
  0.999  0.001  0.000  0.001  0.000
  0.000  0.000  0.994  0.000  0.006
    occupations:
  0.359 -0.000 -0.000 -0.001  0.000
 -0.000  0.479  0.000 -0.004 -0.000
 -0.000  0.000  0.487  0.000 -0.002
 -0.001 -0.004  0.000  0.336 -0.000
  0.000 -0.000 -0.002 -0.000  0.468
atomic mag. moment =     2.820303
atom   17   Tr[ns(na)] (up, down, total) =   4.97002  1.80034  6.77037
   spin  1
    eigenvalues: 
  0.987  0.995  0.996  0.996  0.996
    eigenvectors:
  0.022  0.287  0.637  0.046  0.008
  0.337  0.186  0.000  0.474  0.003
  0.240  0.455  0.302  0.000  0.003
  0.001  0.011  0.000  0.029  0.958
  0.400  0.059  0.061  0.451  0.029
    occupations:
  0.995 -0.000 -0.001 -0.000  0.001
 -0.000  0.993 -0.002  0.000  0.004
 -0.001 -0.002  0.993  0.000  0.003
 -0.000  0.000  0.000  0.996 -0.000
  0.001  0.004  0.003 -0.000  0.992
   spin  2
    eigenvalues: 
  0.301  0.329  0.338  0.394  0.438
    eigenvectors:
  0.814  0.000  0.156  0.000  0.030
  0.069  0.482  0.103  0.001  0.344
  0.068  0.468  0.157  0.065  0.242
  0.004  0.041  0.020  0.930  0.005
  0.045  0.009  0.564  0.003  0.379
    occupations:
  0.311 -0.019 -0.017  0.003  0.004
 -0.019  0.366  0.030 -0.007 -0.039
 -0.017  0.030  0.359  0.012 -0.031
  0.003 -0.007  0.012  0.390  0.008
  0.004 -0.039 -0.031  0.008  0.374
atomic mag. moment =     3.169676
atom   18   Tr[ns(na)] (up, down, total) =   4.97009  1.79966  6.76975
   spin  1
    eigenvalues: 
  0.987  0.995  0.996  0.996  0.996
    eigenvectors:
  0.021  0.288  0.640  0.044  0.007
  0.338  0.187  0.000  0.474  0.002
  0.240  0.455  0.302  0.000  0.003
  0.001  0.011  0.000  0.026  0.961
  0.400  0.059  0.058  0.456  0.027
    occupations:
  0.995 -0.000  0.001 -0.000 -0.001
 -0.000  0.993  0.002  0.000 -0.004
[...]
     0.0891   0.0604   0.0452   0.0348   0.0301   0.0158   0.0049   0.0015
     0.0010   0.0005   0.0002   0.0002   0.0001   0.0001   0.0001   0.0001
     0.0001   0.0001   0.0001   0.0000   0.0000   0.0000   0.0000   0.0000
     0.0000   0.0000   0.0000   0.0000   0.0000   0.0000   0.0000   0.0000
     0.0000   0.0000   0.0000   0.0000   0.0000   0.0000   0.0000   0.0000
     0.0000   0.0000   0.0000   0.0000   0.0000   0.0000   0.0000   0.0000
     0.0000   0.0000   0.0000   0.0000   0.0000

     the Fermi energy is     5.3420 ev

!    total energy              =   -6653.55143183 Ry
     Harris-Foulkes estimate   =   -6653.55143183 Ry
     estimated scf accuracy    <          3.9E-09 Ry

     total all-electron energy =    -51711.583271 Ry

     The total energy is the sum of the following terms:

     one-electron contribution =  -26139.97216279 Ry
     hartree contribution      =   13131.99587539 Ry
     xc contribution           =    -705.04437085 Ry
     ewald contribution        =    8626.51996658 Ry
     Hubbard energy            =       0.00000000 Ry
     one-center paw contrib.   =   -1567.13777068 Ry
     smearing contrib. (-TS)   =       0.08703052 Ry

     total magnetization       =    50.25 Bohr mag/cell
     absolute magnetization    =    52.52 Bohr mag/cell

     convergence has been achieved in  27 iterations

     Forces acting on atoms (Ry/au):


     negative rho (up, down):  0.539E-04 0.124E-02
     atom    1 type  1   force =    -0.00022761   -0.00009773    0.00358415
     atom    2 type  1   force =    -0.00022779    0.00009703    0.00358556
     atom    3 type  1   force =     0.00025115   -0.00022057    0.00351406
     atom    4 type  1   force =     0.00025194    0.00021946    0.00351515
     atom    5 type  1   force =    -0.00004288    0.00000159   -0.00946648
     atom    6 type  1   force =     0.00020836   -0.00000015   -0.00566141
     atom    7 type  1   force =    -0.00060425    0.00000067   -0.00685920
     atom    8 type  1   force =    -0.00005016   -0.00000268   -0.00729968
     atom    9 type  1   force =     0.00068240   -0.00289939    0.00398422
     atom   10 type  1   force =     0.00068198    0.00290120    0.00398234
     atom   11 type  1   force =    -0.00034807   -0.00129476    0.00351691
     atom   12 type  1   force =    -0.00034358    0.00129456    0.00351669
     atom   13 type  1   force =    -0.00004686   -0.00000235    0.00001233
     atom   14 type  1   force =     0.00004368    0.00000159   -0.00007493
     atom   15 type  1   force =    -0.00009131   -0.00000303   -0.00003765
     atom   16 type  1   force =     0.00004573    0.00000236    0.00003334
     atom   17 type  1   force =    -0.00005049   -0.00001037    0.00008091
     atom   18 type  1   force =    -0.00005382    0.00001540    0.00006943
     atom   19 type  1   force =    -0.00004087    0.00004256   -0.00002382
     atom   20 type  1   force =    -0.00003837   -0.00004131   -0.00003283
     atom   21 type  2   force =    -0.00007401   -0.00000114    0.00000088
     atom   22 type  3   force =     0.00001299   -0.00000135    0.00008113
     atom   23 type  3   force =     0.00006185   -0.00000160   -0.00002110
     The non-local contrib.  to forces
     atom    1 type  1   force =     0.00004833   -0.00114182   -0.39161275
     atom    2 type  1   force =     0.00003866    0.00114152   -0.39161364
     atom    3 type  1   force =     0.00015725   -0.00017020   -0.39176440
     atom    4 type  1   force =     0.00016320    0.00016865   -0.39176684
     atom    5 type  1   force =     0.00017111    0.00000154   -0.02833545
     atom    6 type  1   force =     0.00044644   -0.00000309   -0.03214154
     atom    7 type  1   force =     0.00028393   -0.00000321   -0.03382602
     atom    8 type  1   force =     0.00023484    0.00000039   -0.03373587
     atom    9 type  1   force =    -0.00281788    0.00083311   -0.00321805
     atom   10 type  1   force =    -0.00280947   -0.00082771   -0.00322578
     atom   11 type  1   force =     0.00218402   -0.00054516   -0.00172884
     atom   12 type  1   force =     0.00217901    0.00054550   -0.00172743
     atom   13 type  1   force =    -0.00543787    0.00002601    0.21755096
     atom   14 type  1   force =     0.01730279   -0.00002098    0.17240472
     atom   15 type  1   force =     0.00058686   -0.00007091    0.18433242
     atom   16 type  1   force =    -0.00259915    0.00002267   -0.01687564
     atom   17 type  1   force =     0.09501593    0.10025460    0.34716428
     atom   18 type  1   force =     0.09503721   -0.10030632    0.34727668
     atom   19 type  1   force =    -0.08001333    0.09599663    0.31539307
     atom   20 type  1   force =    -0.07995893   -0.09608722    0.31556172
     atom   21 type  2   force =     0.01681528   -0.00004743   -0.22755981
     atom   22 type  3   force =     0.00823965    0.00000443   -0.01506591
     atom   23 type  3   force =    -0.00227715   -0.00003741   -0.01528160
     The ionic contribution  to forces
     atom    1 type  1   force =     0.02830919   -0.01203739 -262.48754426
     atom    2 type  1   force =     0.02811659    0.01201021 -262.48731372
     atom    3 type  1   force =    -0.02841870   -0.01299774 -262.48353683
     atom    4 type  1   force =    -0.02814113    0.01297070 -262.48330044
     atom    5 type  1   force =     0.00720105    0.00020395 -142.45135258
     atom    6 type  1   force =     0.01374617   -0.00028192 -142.22573403
     atom    7 type  1   force =    -0.00228062    0.00027938 -142.64890687
     atom    8 type  1   force =    -0.01355227   -0.00034774 -142.59515969
     atom    9 type  1   force =     0.57472833   -0.11583313   -7.86231539
     atom   10 type  1   force =     0.57535762    0.11615213   -7.86328305
     atom   11 type  1   force =    -0.60656874   -0.19513136   -7.75856613
     atom   12 type  1   force =    -0.60732217    0.19556895   -7.75905542
     atom   13 type  1   force =    -0.05652868   -0.00056904  125.85975085
     atom   14 type  1   force =     0.10035366    0.00005178  127.43037862
     atom   15 type  1   force =     0.24712792    0.00024970  124.21578004
     atom   16 type  1   force =    -0.41290364    0.00048236  124.65940426
     atom   17 type  1   force =     0.20421512   -1.42275506  250.89339145
     atom   18 type  1   force =     0.19957808    1.42005801  250.89128321
     atom   19 type  1   force =     0.25410489   -1.55662249  251.18902292
     atom   20 type  1   force =     0.25762264    1.55507652  251.18940386
     atom   21 type  2   force =    -0.22068042    0.00043305  108.61791439
     atom   22 type  3   force =    -0.74494413   -0.00035658   18.07432606
     atom   23 type  3   force =     0.23087925    0.00339570   18.08541274
     The local contribution  to forces
     atom    1 type  1   force =    -0.02862673    0.01305797  262.89565731
     atom    2 type  1   force =    -0.02842452   -0.01303037  262.89542802
     atom    3 type  1   force =     0.02856114    0.01291379  262.89172477
     atom    4 type  1   force =     0.02827786   -0.01288525  262.89149316
     atom    5 type  1   force =    -0.00742245   -0.00020319  142.47038643
     atom    6 type  1   force =    -0.01378746    0.00028493  142.25282764
     atom    7 type  1   force =     0.00141098   -0.00027578  142.67651761
     atom    8 type  1   force =     0.01320977    0.00034531  142.62226943
     atom    9 type  1   force =    -0.57120147    0.11210889    7.86933613
     atom   10 type  1   force =    -0.57184027   -0.11243200    7.87030654
     atom   11 type  1   force =     0.60412569    0.19442402    7.76344071
     atom   12 type  1   force =     0.60488897   -0.19486208    7.76392442
     atom   13 type  1   force =     0.06182069    0.00053442 -126.08443959
     atom   14 type  1   force =    -0.11939483   -0.00001986 -127.60545116
     atom   15 type  1   force =    -0.24775939   -0.00018319 -124.40287288
     atom   16 type  1   force =     0.41630262   -0.00049471 -124.64029279
     atom   17 type  1   force =    -0.30115200    1.32033927 -251.25126557
     atom   18 type  1   force =    -0.29653737   -1.31758420 -251.24928453
     atom   19 type  1   force =    -0.17218398    1.45849169 -251.51419438
     atom   20 type  1   force =    -0.17575585   -1.45684978 -251.51475833
     atom   21 type  2   force =     0.20462151   -0.00039377 -108.39975824
     atom   22 type  3   force =     0.73671758    0.00035256  -18.05918566
     atom   23 type  3   force =    -0.22854177   -0.00336097  -18.07015747
     The core correction contribution to forces
     atom    1 type  1   force =     0.00004529    0.00004323   -0.01286024
     atom    2 type  1   force =     0.00004499   -0.00004330   -0.01286016
     atom    3 type  1   force =    -0.00005290    0.00005346   -0.01285383
     atom    4 type  1   force =    -0.00005262   -0.00005358   -0.01285381
     atom    5 type  1   force =     0.00000781   -0.00000003   -0.00009297
     atom    6 type  1   force =    -0.00019738    0.00000009   -0.00054238
     atom    7 type  1   force =    -0.00002046    0.00000088   -0.00057537
     atom    8 type  1   force =     0.00005601   -0.00000025   -0.00058719
     atom    9 type  1   force =    -0.00002925   -0.00000430    0.00022144
     atom   10 type  1   force =    -0.00002828    0.00000554    0.00022032
     atom   11 type  1   force =    -0.00008737   -0.00003800    0.00041444
     atom   12 type  1   force =    -0.00008794    0.00003870    0.00041382
     atom   13 type  1   force =     0.00010364   -0.00000109    0.00712358
     atom   14 type  1   force =     0.00178854   -0.00000052    0.00255357
     atom   15 type  1   force =    -0.00005433   -0.00000723    0.00267634
     atom   16 type  1   force =    -0.00076308    0.00000239   -0.00224778
     atom   17 type  1   force =     0.00186993    0.00213977    0.01072679
     atom   18 type  1   force =     0.00186868   -0.00213875    0.01072985
     atom   19 type  1   force =    -0.00194736    0.00216794    0.00968539
     atom   20 type  1   force =    -0.00194602   -0.00217046    0.00968919
     atom   21 type  2   force =    -0.00082778    0.00000231    0.00934737
     atom   22 type  3   force =     0.00000000    0.00000000    0.00000000
     atom   23 type  3   force =     0.00000000    0.00000000    0.00000000
     The Hubbard contrib.    to forces
     atom    1 type  1   force =    -0.00000000   -0.00000000   -0.00000000
     atom    2 type  1   force =    -0.00000000    0.00000000   -0.00000000
     atom    3 type  1   force =     0.00000000   -0.00000000   -0.00000000
     atom    4 type  1   force =     0.00000000    0.00000000   -0.00000000
     atom    5 type  1   force =    -0.00000000    0.00000000   -0.00000000
     atom    6 type  1   force =     0.00000000    0.00000000   -0.00000000
     atom    7 type  1   force =    -0.00000000   -0.00000000   -0.00000000
     atom    8 type  1   force =    -0.00000000    0.00000000   -0.00000000
     atom    9 type  1   force =    -0.00000000   -0.00000000    0.00000000
     atom   10 type  1   force =    -0.00000000    0.00000000    0.00000000
     atom   11 type  1   force =     0.00000000   -0.00000000    0.00000000
     atom   12 type  1   force =     0.00000000    0.00000000    0.00000000
     atom   13 type  1   force =    -0.00000000    0.00000000   -0.00000000
     atom   14 type  1   force =     0.00000000    0.00000000    0.00000000
     atom   15 type  1   force =    -0.00000000   -0.00000000    0.00000000
     atom   16 type  1   force =     0.00000000   -0.00000000    0.00000000
     atom   17 type  1   force =     0.00000000    0.00000000    0.00000000
     atom   18 type  1   force =     0.00000000   -0.00000000    0.00000000
     atom   19 type  1   force =    -0.00000000    0.00000000    0.00000000
     atom   20 type  1   force =    -0.00000000   -0.00000000    0.00000000
     atom   21 type  2   force =    -0.00000000    0.00000000    0.00000000
     atom   22 type  3   force =     0.00000000    0.00000000   -0.00000000
     atom   23 type  3   force =    -0.00000000   -0.00000000   -0.00000000
     The SCF correction term to forces
     atom    1 type  1   force =     0.00000000    0.00000000    0.00000000
     atom    2 type  1   force =     0.00000000    0.00000000    0.00000000
     atom    3 type  1   force =     0.00000000    0.00000000    0.00000000
     atom    4 type  1   force =     0.00000000    0.00000000    0.00000000
     atom    5 type  1   force =     0.00000000    0.00000000    0.00000000
     atom    6 type  1   force =     0.00000000    0.00000000    0.00000000
     atom    7 type  1   force =     0.00000000    0.00000000    0.00000000
     atom    8 type  1   force =     0.00000000    0.00000000    0.00000000
     atom    9 type  1   force =     0.00000000    0.00000000    0.00000000
     atom   10 type  1   force =     0.00000000    0.00000000    0.00000000
     atom   11 type  1   force =     0.00000000    0.00000000    0.00000000
     atom   12 type  1   force =     0.00000000    0.00000000    0.00000000
     atom   13 type  1   force =    -0.00000531    0.00000773    0.00002664
     atom   14 type  1   force =    -0.00000716   -0.00000845    0.00003942
     atom   15 type  1   force =     0.00000695    0.00000897    0.00004653
     atom   16 type  1   force =     0.00000830   -0.00000999    0.00004539
     atom   17 type  1   force =    -0.00000016    0.00001144    0.00006407
     atom   18 type  1   force =    -0.00000111   -0.00001296    0.00006433
     atom   19 type  1   force =    -0.00000177    0.00000916    0.00006928
     atom   20 type  1   force =    -0.00000089   -0.00000999    0.00007084
     atom   21 type  2   force =    -0.00000329    0.00000508    0.00005728
     atom   22 type  3   force =    -0.00000078   -0.00000139    0.00000674
     atom   23 type  3   force =     0.00000083    0.00000145    0.00000534

     Total force =     0.000255     Total SCF correction =     0.000170
     SCF correction compared to forces is large: reduce conv_thr to get better values


     entering subroutine stress ...


     negative rho (up, down):  0.539E-04 0.124E-02
          total   stress  (Ry/bohr**3)                   (kbar)     P=  -10.66
  -0.00010442   0.00000002  -0.00000019        -15.36      0.00     -0.03
   0.00000002  -0.00011526  -0.00000000          0.00    -16.96     -0.00
  -0.00000019  -0.00000000   0.00000229         -0.03     -0.00      0.34

     kinetic stress (kbar)  32118.98      0.01     -3.71
                                0.01  32113.73      0.02
                               -3.71      0.02  32028.82

     local   stress (kbar)-871572.78     -0.10      9.55
                               -0.10-871548.53      0.03
                                9.55      0.03 922755.11

     nonloc. stress (kbar) -24668.39     -0.01      3.04
                               -0.01 -24668.02     -0.01
                                3.04     -0.01 -24597.55

     hartree stress (kbar) 460771.87      0.03     -6.03
                                0.03 460762.05     -0.00
                               -6.03     -0.00-425984.42

     exc-cor stress (kbar)  -1007.13      0.00     -0.02
                                0.00  -1007.14      0.00
                               -0.02      0.00  -1013.99

     corecor stress (kbar)  -6682.11     -0.00     -0.09
                               -0.00  -6682.06      0.00
                               -0.09      0.00  -6681.10

     ewald   stress (kbar) 411024.20      0.07     -2.76
                                0.07 411013.02     -0.03
                               -2.76     -0.03-496506.54

     hubbard stress (kbar)     -0.00     -0.00     -0.00
                               -0.00     -0.00      0.00
                               -0.00      0.00     -0.00

     london  stress (kbar)      0.00      0.00      0.00
                                0.00      0.00      0.00
                                0.00      0.00      0.00

     dft-nl  stress (kbar)      0.00      0.00      0.00
                                0.00      0.00      0.00
                                0.00      0.00      0.00



     Writing output data file Fe_100_2x2_H2S_FH.save
 
     init_run     :     52.46s CPU     57.35s WALL (       1 calls)
     electrons    :   2126.34s CPU   2287.74s WALL (       1 calls)
     forces       :     80.05s CPU     81.28s WALL (       1 calls)
     stress       :    378.37s CPU    388.54s WALL (       1 calls)

     Called by init_run:
     wfcinit      :     28.33s CPU     31.59s WALL (       1 calls)
     potinit      :      5.64s CPU      5.70s WALL (       1 calls)

     Called by electrons:
     c_bands      :   1045.23s CPU   1101.87s WALL (      27 calls)
     sum_band     :    562.12s CPU    584.20s WALL (      27 calls)
     v_of_rho     :     20.81s CPU     21.26s WALL (      28 calls)
     v_h          :      1.07s CPU      1.08s WALL (      28 calls)
     v_xc         :     21.15s CPU     21.62s WALL (      30 calls)
     newd         :    327.59s CPU    328.65s WALL (      28 calls)
     mix_rho      :    149.16s CPU    149.60s WALL (      27 calls)

     Called by c_bands:
     init_us_2    :      6.74s CPU      6.79s WALL (     340 calls)
     cegterg      :    977.57s CPU   1000.52s WALL (     135 calls)

     Called by sum_band:
     sum_band:bec :      0.25s CPU      0.28s WALL (     135 calls)
     addusdens    :    366.90s CPU    367.62s WALL (      27 calls)

     Called by *egterg:
     h_psi        :    756.97s CPU    758.78s WALL (     506 calls)
     s_psi        :     53.01s CPU     53.03s WALL (     561 calls)
     g_psi        :      1.34s CPU      1.36s WALL (     366 calls)
     cdiaghg      :     51.94s CPU     52.15s WALL (     501 calls)
     cegterg:over :     52.21s CPU     52.25s WALL (     366 calls)
     cegterg:upda :     39.07s CPU     39.25s WALL (     366 calls)
     cegterg:last :     24.35s CPU     24.37s WALL (     135 calls)
     cdiaghg:chol :      2.56s CPU      2.54s WALL (     501 calls)
     cdiaghg:inve :      0.87s CPU      0.86s WALL (     501 calls)
     cdiaghg:para :     10.13s CPU     10.20s WALL (    1002 calls)

     Called by h_psi:
     h_psi:vloc   :    517.33s CPU    518.92s WALL (     506 calls)
     h_psi:vnl    :     93.38s CPU     93.43s WALL (     506 calls)
     add_vuspsi   :     45.06s CPU     45.08s WALL (     506 calls)
     vhpsi        :    143.75s CPU    143.88s WALL (     506 calls)

     General routines
     calbec       :    159.51s CPU    159.77s WALL (    2477 calls)
     fft          :     22.84s CPU     23.21s WALL (     902 calls)
     ffts         :     67.97s CPU     68.25s WALL (   13284 calls)
     fftw         :    514.18s CPU    516.15s WALL (   71031 calls)
     interpolate  :      3.80s CPU      3.86s WALL (     110 calls)
     davcio       :     12.80s CPU     79.28s WALL (     995 calls)
 
     Parallel routines
     fft_scatter  :    267.26s CPU    269.30s WALL (   85217 calls)
     ALLTOALL     :     19.24s CPU     19.51s WALL (   70947 calls)
     Hubbard U routines
     new_ns       :     18.16s CPU     32.96s WALL (      27 calls)
     vhpsi        :    143.75s CPU    143.88s WALL (     506 calls)
     force_hub    :     21.64s CPU     22.51s WALL (       1 calls)
     stres_hub    :    199.97s CPU    209.83s WALL (       1 calls)
 
     PAW routines
     PAW_pot      :      7.01s CPU      7.04s WALL (      28 calls)
     PAW_ddot     :      5.74s CPU      5.75s WALL (     931 calls)
 
     PWSCF        : 44m12.37s CPU    47m44.96s WALL

 
   This run was terminated on:  11:18:34  18Sep2015            

=------------------------------------------------------------------------------=
   JOB DONE.
=------------------------------------------------------------------------------=
Application 17617972 resources: utime ~132733s, stime ~4186s, Rss ~621400, inblocks ~5906062478, outblocks ~938812400
