
     Program PWSCF v.5.0.2 (svn rev. 9656) starts on 12Dec2015 at  4:49:13 

     This program is part of the open-source Quantum ESPRESSO suite
     for quantum simulation of materials; please cite
         "P. Giannozzi et al., J. Phys.:Condens. Matter 21 395502 (2009);
          URL http://www.quantum-espresso.org", 
     in publications or presentations arising from this work. More details at
     http://www.quantum-espresso.org/quote.php

     Parallel version (MPI & OpenMP), running on      48 processor cores
     Number of MPI processes:                48
     Threads/MPI process:                     1
     K-points division:     npool     =       4
     R & G space division:  proc/nbgrp/npool/nimage =      12
     wavefunctions fft division:  fft/group =       2

     Current dimensions of program PWSCF are:
     Max number of different atomic species (ntypx) = 10
     Max number of k-points (npk) =  40000
     Max angular momentum in pseudopotentials (lmaxx) =  3
     Reading input from Fe_110_2x2_H2S_SB_scf.in
Warning: card  &IONS ignored
Warning: card  / ignored
Warning: card  &CELL ignored
Warning: card    PRESS=0.0 ignored
Warning: card    PRESS_CONV_THR=0.1 ignored
Warning: card  / ignored

     IMPORTANT: XC functional enforced from input :
     Exchange-correlation      = PBE ( 1 4 3 4 0)
     EXX-fraction              =        0.00
     Any further DFT definition will be discarded
     Please, verify this is what you really want

               file Fe.pbe-spn-kjpaw_psl.0.2.1.UPF: wavefunction(s)  3D renormalized
               file S.pbe-n-kjpaw_psl.0.1.UPF: wavefunction(s)  3P renormalized
               file H.pbe-kjpaw_psl.0.1.upf: wavefunction(s)  1S renormalized

     Subspace diagonalization in iterative solution of the eigenvalue problem:
     scalapack distributed-memory algorithm (size of sub-group:  2*  2 procs)


   Task Groups are in USE
   groups and procs/group :     2    6
 
     Parallelization info
     --------------------
     sticks:   dense  smooth     PW     G-vecs:    dense   smooth      PW
     Min         429     203     57                99954    32713    4877
     Max         431     204     58                99959    32748    4892
     Sum        5161    2447    693              1199489   392779   58615
 


     bravais-lattice index     =            0
     lattice parameter (alat)  =       1.8897  a.u.
     unit-cell volume          =    3139.3349 (a.u.)^3
     number of atoms/cell      =           23
     number of atomic types    =            3
     number of electrons       =       328.00
     number of Kohn-Sham states=          197
     kinetic-energy cutoff     =      95.0000  Ry
     charge density cutoff     =     800.0000  Ry
     convergence threshold     =      1.0E-08
     mixing beta               =       0.5000
     number of iterations used =            8  local-TF  mixing
     Exchange-correlation      = PBE ( 1 4 3 4 0)
     EXX-fraction              =        0.00

     celldm(1)=   1.889727  celldm(2)=   0.000000  celldm(3)=   0.000000
     celldm(4)=   0.000000  celldm(5)=   0.000000  celldm(6)=   0.000000

     crystal axes: (cart. coord. in units of alat)
               a(1) = (   4.906044   0.000000   0.000000 )  
               a(2) = (  -1.635348   4.625463   0.000000 )  
               a(3) = (   0.000000   0.000000  20.500000 )  

     reciprocal axes: (cart. coord. in units 2 pi/alat)
               b(1) = (  0.203830  0.072065  0.000000 )  
               b(2) = (  0.000000  0.216195  0.000000 )  
               b(3) = (  0.000000  0.000000  0.048780 )  


     PseudoPot. # 1 for Fe read from file:
     /work/e05/e05/ablar/QE_PSEUDO/Fe.pbe-spn-kjpaw_psl.0.2.1.UPF
     MD5 check sum: a0a08122d52b112de96d1da1d7dd020f
     Pseudo is Projector augmented-wave + core cor, Zval = 16.0
     Generated using "atomic" code by A. Dal Corso  v.5.0.2 svn rev. 9415
     Shape of augmentation charge: PSQ
     Using radial grid of 1191 points,  6 beta functions with: 
                l(1) =   0
                l(2) =   0
                l(3) =   1
                l(4) =   1
                l(5) =   2
                l(6) =   2
     Q(r) pseudized with 0 coefficients 


     PseudoPot. # 2 for  S read from file:
     /work/e05/e05/ablar/QE_PSEUDO/S.pbe-n-kjpaw_psl.0.1.UPF
     MD5 check sum: 4d0aa7498161b95d6b336a838fdb998f
     Pseudo is Projector augmented-wave + core cor, Zval =  6.0
     Generated using "atomic" code by A. Dal Corso  v.5.0.2 svn rev. 9415
     Shape of augmentation charge: PSQ
     Using radial grid of 1151 points,  4 beta functions with: 
                l(1) =   0
                l(2) =   0
                l(3) =   1
                l(4) =   1
     Q(r) pseudized with 0 coefficients 


     PseudoPot. # 3 for  H read from file:
     /work/e05/e05/ablar/QE_PSEUDO/H.pbe-kjpaw_psl.0.1.upf
     MD5 check sum: 94e484f906d9e9773b2f6e52662335b2
     Pseudo is Projector augmented-wave, Zval =  1.0
     Generated using "atomic" code by A. Dal Corso  v.5.0.99 svn rev. 10869
     Shape of augmentation charge: PSQ
     Using radial grid of  929 points,  2 beta functions with: 
                l(1) =   0
                l(2) =   0
     Q(r) pseudized with 0 coefficients 


     atomic species   valence    mass     pseudopotential
        Fe            16.00    55.85000     Fe( 1.00)
        S              6.00    32.00000      S( 1.00)
        H              1.00     1.00000      H( 1.00)

     Starting magnetic structure 
     atomic species   magnetization
        Fe           0.600
        S            0.000
        H            0.000


     Simplified LDA+U calculation (l_max = 2) with parameters (eV):
     atomic species    L          U    alpha       J0     beta
        Fe             2     0.0000   0.0000   0.0000   0.0000



     No symmetry found


                                    s                        frac. trans.

      isym =  1     identity                                     

 cryst.   s( 1) = (     1          0          0      )
                  (     0          1          0      )
                  (     0          0          1      )

 cart.    s( 1) = (  1.0000000  0.0000000  0.0000000 )
                  (  0.0000000  1.0000000  0.0000000 )
                  (  0.0000000  0.0000000  1.0000000 )


     point group C_1 (1)    
     there are  1 classes
     the character table:

       E    
A      1.00

     the symmetry operations in each class:
     E        1

   Cartesian axes

     site n.     atom                  positions (alat units)
         1           Fe  tau(   1) = (   0.0000000   0.0000000  -4.0057584  )
         2           Fe  tau(   2) = (  -0.8176697   2.3127291  -4.0057584  )
         3           Fe  tau(   3) = (   2.4530190   0.0000000  -4.0057584  )
         4           Fe  tau(   4) = (  -3.2706887   2.3127291  -4.0057584  )
         5           Fe  tau(   5) = (   0.8176697   1.1563595  -2.0028892  )
         6           Fe  tau(   6) = (  -0.8176697  -1.1563595  -2.0028892  )
         7           Fe  tau(   7) = (   1.6353494  -1.1563595  -2.0028892  )
         8           Fe  tau(   8) = (  -1.6353494   1.1563595  -2.0028892  )
         9           Fe  tau(   9) = (   0.0000000   0.0000000   0.0000000  )
        10           Fe  tau(  10) = (  -0.8176697   2.3127291   0.0000000  )
        11           Fe  tau(  11) = (   2.4530190   0.0000000   0.0000000  )
        12           Fe  tau(  12) = (  -3.2706887   2.3127291   0.0000000  )
        13           Fe  tau(  13) = (   0.8141251   1.1501541   1.9826528  )
        14           Fe  tau(  14) = (  -0.8105399  -1.1478648   1.9855636  )
        15           Fe  tau(  15) = (   1.6280138  -1.1634090   1.9856060  )
        16           Fe  tau(  16) = (  -1.6321710   1.1640763   1.9829526  )
        17           Fe  tau(  17) = (  -0.0052822  -0.0286586   4.0123628  )
        18           Fe  tau(  18) = (  -0.8129176   2.3440129   4.0129988  )
        19           Fe  tau(  19) = (   2.4343515  -0.0102004   3.9395980  )
        20           Fe  tau(  20) = (  -3.2524297   2.3256276   3.9390657  )
        21           S   tau(  21) = (  -0.4040031   1.1586382   5.8659067  )
        22           H   tau(  22) = (   0.5427046   1.4494238   6.8212108  )
        23           H   tau(  23) = (  -1.3453864   0.8677989   6.8264276  )

   Crystallographic axes

     site n.     atom                  positions (cryst. coord.)
         1           Fe  tau(   1) = (  0.0000000  0.0000000 -0.1954028  )
         2           Fe  tau(   2) = (  0.0000007  0.4999995 -0.1954028  )
         3           Fe  tau(   3) = (  0.4999994  0.0000000 -0.1954028  )
         4           Fe  tau(   4) = ( -0.4999986  0.4999995 -0.1954028  )
         5           Fe  tau(   5) = (  0.2499987  0.2499987 -0.0977019  )
         6           Fe  tau(   6) = ( -0.2499987 -0.2499987 -0.0977019  )
         7           Fe  tau(   7) = (  0.2500007 -0.2499987 -0.0977019  )
         8           Fe  tau(   8) = ( -0.2500007  0.2499987 -0.0977019  )
         9           Fe  tau(   9) = (  0.0000000  0.0000000  0.0000000  )
        10           Fe  tau(  10) = (  0.0000007  0.4999995  0.0000000  )
        11           Fe  tau(  11) = (  0.4999994  0.0000000  0.0000000  )
        12           Fe  tau(  12) = ( -0.4999986  0.4999995  0.0000000  )
        13           Fe  tau(  13) = (  0.2488290  0.2486571  0.0967148  )
        14           Fe  tau(  14) = ( -0.2479332 -0.2481622  0.0968568  )
        15           Fe  tau(  15) = (  0.2479975 -0.2515227  0.0968588  )
        16           Fe  tau(  16) = ( -0.2487967  0.2516670  0.0967294  )
        17           Fe  tau(  17) = ( -0.0031420 -0.0061958  0.1957250  )
        18           Fe  tau(  18) = (  0.0032238  0.5067629  0.1957560  )
        19           Fe  tau(  19) = (  0.4954593 -0.0022053  0.1921755  )
        20           Fe  tau(  20) = ( -0.4953474  0.5027881  0.1921495  )
        21           S   tau(  21) = (  0.0011491  0.2504913  0.2861418  )
        22           H   tau(  22) = (  0.2150721  0.3133576  0.3327420  )
        23           H   tau(  23) = ( -0.2116926  0.1876134  0.3329965  )

     number of k points=    20  Marzari-Vanderbilt smearing, width (Ry)=  0.0400
                       cart. coord. in units 2pi/alat
        k(    1) = (   0.0000000   0.0000000   0.0000000), wk =   0.0625000
        k(    2) = (   0.0000000   0.0540486   0.0000000), wk =   0.1250000
        k(    3) = (   0.0000000  -0.1080973   0.0000000), wk =   0.0625000
        k(    4) = (   0.0509576   0.0180162   0.0000000), wk =   0.1250000
        k(    5) = (   0.0509576   0.0720649   0.0000000), wk =   0.1250000
        k(    6) = (   0.0509576  -0.0900811   0.0000000), wk =   0.1250000
        k(    7) = (   0.0509576  -0.0360324   0.0000000), wk =   0.1250000
        k(    8) = (  -0.1019151  -0.0360324   0.0000000), wk =   0.0625000
        k(    9) = (  -0.1019151   0.0180162   0.0000000), wk =   0.1250000
        k(   10) = (  -0.1019151  -0.1441297   0.0000000), wk =   0.0625000
        k(   11) = (   0.0000000   0.0000000   0.0000000), wk =   0.0625000
        k(   12) = (   0.0000000   0.0540486   0.0000000), wk =   0.1250000
        k(   13) = (   0.0000000  -0.1080973   0.0000000), wk =   0.0625000
        k(   14) = (   0.0509576   0.0180162   0.0000000), wk =   0.1250000
        k(   15) = (   0.0509576   0.0720649   0.0000000), wk =   0.1250000
        k(   16) = (   0.0509576  -0.0900811   0.0000000), wk =   0.1250000
        k(   17) = (   0.0509576  -0.0360324   0.0000000), wk =   0.1250000
        k(   18) = (  -0.1019151  -0.0360324   0.0000000), wk =   0.0625000
        k(   19) = (  -0.1019151   0.0180162   0.0000000), wk =   0.1250000
        k(   20) = (  -0.1019151  -0.1441297   0.0000000), wk =   0.0625000

                       cryst. coord.
        k(    1) = (   0.0000000   0.0000000   0.0000000), wk =   0.0625000
        k(    2) = (   0.0000000   0.2500000   0.0000000), wk =   0.1250000
        k(    3) = (   0.0000000  -0.5000000   0.0000000), wk =   0.0625000
        k(    4) = (   0.2500000   0.0000000   0.0000000), wk =   0.1250000
        k(    5) = (   0.2500000   0.2500000   0.0000000), wk =   0.1250000
        k(    6) = (   0.2500000  -0.5000000   0.0000000), wk =   0.1250000
        k(    7) = (   0.2500000  -0.2500000   0.0000000), wk =   0.1250000
        k(    8) = (  -0.5000000  -0.0000000   0.0000000), wk =   0.0625000
        k(    9) = (  -0.5000000   0.2500000   0.0000000), wk =   0.1250000
        k(   10) = (  -0.5000000  -0.5000000   0.0000000), wk =   0.0625000
        k(   11) = (   0.0000000   0.0000000   0.0000000), wk =   0.0625000
        k(   12) = (   0.0000000   0.2500000   0.0000000), wk =   0.1250000
        k(   13) = (   0.0000000  -0.5000000   0.0000000), wk =   0.0625000
        k(   14) = (   0.2500000   0.0000000   0.0000000), wk =   0.1250000
        k(   15) = (   0.2500000   0.2500000   0.0000000), wk =   0.1250000
        k(   16) = (   0.2500000  -0.5000000   0.0000000), wk =   0.1250000
        k(   17) = (   0.2500000  -0.2500000   0.0000000), wk =   0.1250000
        k(   18) = (  -0.5000000  -0.0000000   0.0000000), wk =   0.0625000
        k(   19) = (  -0.5000000   0.2500000   0.0000000), wk =   0.1250000
        k(   20) = (  -0.5000000  -0.5000000   0.0000000), wk =   0.0625000

     Dense  grid:  1199489 G-vectors     FFT dimensions: (  90,  90, 360)

     Smooth grid:   392779 G-vectors     FFT dimensions: (  60,  60, 243)

     Largest allocated arrays     est. size (Mb)     dimensions
        Kohn-Sham Wavefunctions        12.72 Mb     (   4230,  197)
        Atomic wavefunctions           17.17 Mb     (   4230,  266)
        NL pseudopotentials            24.01 Mb     (   4230,  372)
        Each V/rho on FFT grid          7.42 Mb     ( 243000,   2)
        Each G-vector array             0.76 Mb     (  99959)
        G-vector shells                 0.31 Mb     (  40422)
     Largest temporary arrays     est. size (Mb)     dimensions
        Auxiliary wavefunctions        50.86 Mb     (   4230,  788)
        Each subspace H/S matrix        2.37 Mb     ( 394, 394)
        Each <psi_i|beta_j> matrix      1.12 Mb     (    372,  197)
        Arrays for rho mixing          29.66 Mb     ( 243000,   8)

     Check: negative/imaginary core charge=   -0.000012    0.000000

     Initial potential from superposition of free atoms

     starting charge  327.99118, renormalised to  328.00000

     negative rho (up, down):  0.824E-05 0.768E-06
 --- in v_hubbard ---
Hubbard energy    0.0000
 -------
     Number of +U iterations with fixed ns =  0
     Starting occupations:
 --- enter write_ns ---
 LDA+U parameters:
U( 1)     =  0.00000000
alpha( 1) =  0.00000000
atom    1   Tr[ns(na)] (up, down, total) =   5.00000  1.00000  6.00000
   spin  1
    eigenvalues: 
  1.000  1.000  1.000  1.000  1.000
    eigenvectors:
  1.000  0.000  0.000  0.000  0.000
  0.000  1.000  0.000  0.000  0.000
  0.000  0.000  1.000  0.000  0.000
  0.000  0.000  0.000  1.000  0.000
  0.000  0.000  0.000  0.000  1.000
    occupations:
  1.000  0.000  0.000  0.000  0.000
  0.000  1.000  0.000  0.000  0.000
  0.000  0.000  1.000  0.000  0.000
  0.000  0.000  0.000  1.000  0.000
  0.000  0.000  0.000  0.000  1.000
   spin  2
    eigenvalues: 
  0.200  0.200  0.200  0.200  0.200
    eigenvectors:
  1.000  0.000  0.000  0.000  0.000
  0.000  1.000  0.000  0.000  0.000
  0.000  0.000  1.000  0.000  0.000
  0.000  0.000  0.000  1.000  0.000
  0.000  0.000  0.000  0.000  1.000
    occupations:
  0.200  0.000  0.000  0.000  0.000
  0.000  0.200  0.000  0.000  0.000
  0.000  0.000  0.200  0.000  0.000
  0.000  0.000  0.000  0.200  0.000
  0.000  0.000  0.000  0.000  0.200
atomic mag. moment =     4.000000
atom    2   Tr[ns(na)] (up, down, total) =   5.00000  1.00000  6.00000
   spin  1
    eigenvalues: 
  1.000  1.000  1.000  1.000  1.000
    eigenvectors:
  1.000  0.000  0.000  0.000  0.000
  0.000  1.000  0.000  0.000  0.000
  0.000  0.000  1.000  0.000  0.000
  0.000  0.000  0.000  1.000  0.000
  0.000  0.000  0.000  0.000  1.000
    occupations:
  1.000  0.000  0.000  0.000  0.000
  0.000  1.000  0.000  0.000  0.000
  0.000  0.000  1.000  0.000  0.000
  0.000  0.000  0.000  1.000  0.000
  0.000  0.000  0.000  0.000  1.000
   spin  2
    eigenvalues: 
  0.200  0.200  0.200  0.200  0.200
    eigenvectors:
  1.000  0.000  0.000  0.000  0.000
  0.000  1.000  0.000  0.000  0.000
  0.000  0.000  1.000  0.000  0.000
  0.000  0.000  0.000  1.000  0.000
  0.000  0.000  0.000  0.000  1.000
    occupations:
  0.200  0.000  0.000  0.000  0.000
  0.000  0.200  0.000  0.000  0.000
  0.000  0.000  0.200  0.000  0.000
  0.000  0.000  0.000  0.200  0.000
  0.000  0.000  0.000  0.000  0.200
atomic mag. moment =     4.000000
atom    3   Tr[ns(na)] (up, down, total) =   5.00000  1.00000  6.00000
   spin  1
    eigenvalues: 
  1.000  1.000  1.000  1.000  1.000
    eigenvectors:
  1.000  0.000  0.000  0.000  0.000
  0.000  1.000  0.000  0.000  0.000
  0.000  0.000  1.000  0.000  0.000
  0.000  0.000  0.000  1.000  0.000
  0.000  0.000  0.000  0.000  1.000
    occupations:
  1.000  0.000  0.000  0.000  0.000
  0.000  1.000  0.000  0.000  0.000
  0.000  0.000  1.000  0.000  0.000
  0.000  0.000  0.000  1.000  0.000
  0.000  0.000  0.000  0.000  1.000
   spin  2
    eigenvalues: 
  0.200  0.200  0.200  0.200  0.200
    eigenvectors:
  1.000  0.000  0.000  0.000  0.000
  0.000  1.000  0.000  0.000  0.000
  0.000  0.000  1.000  0.000  0.000
  0.000  0.000  0.000  1.000  0.000
  0.000  0.000  0.000  0.000  1.000
    occupations:
  0.200  0.000  0.000  0.000  0.000
  0.000  0.200  0.000  0.000  0.000
  0.000  0.000  0.200  0.000  0.000
  0.000  0.000  0.000  0.200  0.000
  0.000  0.000  0.000  0.000  0.200
atomic mag. moment =     4.000000
atom    4   Tr[ns(na)] (up, down, total) =   5.00000  1.00000  6.00000
   spin  1
    eigenvalues: 
  1.000  1.000  1.000  1.000  1.000
    eigenvectors:
  1.000  0.000  0.000  0.000  0.000
  0.000  1.000  0.000  0.000  0.000
  0.000  0.000  1.000  0.000  0.000
  0.000  0.000  0.000  1.000  0.000
  0.000  0.000  0.000  0.000  1.000
    occupations:
  1.000  0.000  0.000  0.000  0.000
  0.000  1.000  0.000  0.000  0.000
  0.000  0.000  1.000  0.000  0.000
  0.000  0.000  0.000  1.000  0.000
  0.000  0.000  0.000  0.000  1.000
   spin  2
    eigenvalues: 
  0.200  0.200  0.200  0.200  0.200
    eigenvectors:
  1.000  0.000  0.000  0.000  0.000
  0.000  1.000  0.000  0.000  0.000
  0.000  0.000  1.000  0.000  0.000
  0.000  0.000  0.000  1.000  0.000
  0.000  0.000  0.000  0.000  1.000
    occupations:
  0.200  0.000  0.000  0.000  0.000
  0.000  0.200  0.000  0.000  0.000
  0.000  0.000  0.200  0.000  0.000
  0.000  0.000  0.000  0.200  0.000
  0.000  0.000  0.000  0.000  0.200
atomic mag. moment =     4.000000
atom    5   Tr[ns(na)] (up, down, total) =   5.00000  1.00000  6.00000
   spin  1
    eigenvalues: 
  1.000  1.000  1.000  1.000  1.000
    eigenvectors:
  1.000  0.000  0.000  0.000  0.000
  0.000  1.000  0.000  0.000  0.000
  0.000  0.000  1.000  0.000  0.000
  0.000  0.000  0.000  1.000  0.000
  0.000  0.000  0.000  0.000  1.000
    occupations:
  1.000  0.000  0.000  0.000  0.000
  0.000  1.000  0.000  0.000  0.000
  0.000  0.000  1.000  0.000  0.000
  0.000  0.000  0.000  1.000  0.000
  0.000  0.000  0.000  0.000  1.000
   spin  2
    eigenvalues: 
  0.200  0.200  0.200  0.200  0.200
    eigenvectors:
  1.000  0.000  0.000  0.000  0.000
  0.000  1.000  0.000  0.000  0.000
  0.000  0.000  1.000  0.000  0.000
  0.000  0.000  0.000  1.000  0.000
  0.000  0.000  0.000  0.000  1.000
    occupations:
  0.200  0.000  0.000  0.000  0.000
  0.000  0.200  0.000  0.000  0.000
  0.000  0.000  0.200  0.000  0.000
  0.000  0.000  0.000  0.200  0.000
  0.000  0.000  0.000  0.000  0.200
atomic mag. moment =     4.000000
atom    6   Tr[ns(na)] (up, down, total) =   5.00000  1.00000  6.00000
   spin  1
    eigenvalues: 
  1.000  1.000  1.000  1.000  1.000
    eigenvectors:
  1.000  0.000  0.000  0.000  0.000
  0.000  1.000  0.000  0.000  0.000
  0.000  0.000  1.000  0.000  0.000
  0.000  0.000  0.000  1.000  0.000
  0.000  0.000  0.000  0.000  1.000
    occupations:
  1.000  0.000  0.000  0.000  0.000
  0.000  1.000  0.000  0.000  0.000
  0.000  0.000  1.000  0.000  0.000
  0.000  0.000  0.000  1.000  0.000
  0.000  0.000  0.000  0.000  1.000
   spin  2
    eigenvalues: 
  0.200  0.200  0.200  0.200  0.200
    eigenvectors:
  1.000  0.000  0.000  0.000  0.000
  0.000  1.000  0.000  0.000  0.000
  0.000  0.000  1.000  0.000  0.000
  0.000  0.000  0.000  1.000  0.000
  0.000  0.000  0.000  0.000  1.000
    occupations:
  0.200  0.000  0.000  0.000  0.000
  0.000  0.200  0.000  0.000  0.000
  0.000  0.000  0.200  0.000  0.000
  0.000  0.000  0.000  0.200  0.000
  0.000  0.000  0.000  0.000  0.200
atomic mag. moment =     4.000000
atom    7   Tr[ns(na)] (up, down, total) =   5.00000  1.00000  6.00000
   spin  1
    eigenvalues: 
  1.000  1.000  1.000  1.000  1.000
    eigenvectors:
  1.000  0.000  0.000  0.000  0.000
  0.000  1.000  0.000  0.000  0.000
  0.000  0.000  1.000  0.000  0.000
  0.000  0.000  0.000  1.000  0.000
  0.000  0.000  0.000  0.000  1.000
    occupations:
  1.000  0.000  0.000  0.000  0.000
  0.000  1.000  0.000  0.000  0.000
  0.000  0.000  1.000  0.000  0.000
  0.000  0.000  0.000  1.000  0.000
  0.000  0.000  0.000  0.000  1.000
   spin  2
    eigenvalues: 
  0.200  0.200  0.200  0.200  0.200
    eigenvectors:
  1.000  0.000  0.000  0.000  0.000
  0.000  1.000  0.000  0.000  0.000
  0.000  0.000  1.000  0.000  0.000
  0.000  0.000  0.000  1.000  0.000
  0.000  0.000  0.000  0.000  1.000
    occupations:
  0.200  0.000  0.000  0.000  0.000
  0.000  0.200  0.000  0.000  0.000
  0.000  0.000  0.200  0.000  0.000
  0.000  0.000  0.000  0.200  0.000
  0.000  0.000  0.000  0.000  0.200
atomic mag. moment =     4.000000
atom    8   Tr[ns(na)] (up, down, total) =   5.00000  1.00000  6.00000
   spin  1
    eigenvalues: 
  1.000  1.000  1.000  1.000  1.000
    eigenvectors:
  1.000  0.000  0.000  0.000  0.000
  0.000  1.000  0.000  0.000  0.000
  0.000  0.000  1.000  0.000  0.000
  0.000  0.000  0.000  1.000  0.000
  0.000  0.000  0.000  0.000  1.000
    occupations:
  1.000  0.000  0.000  0.000  0.000
  0.000  1.000  0.000  0.000  0.000
  0.000  0.000  1.000  0.000  0.000
  0.000  0.000  0.000  1.000  0.000
  0.000  0.000  0.000  0.000  1.000
   spin  2
    eigenvalues: 
  0.200  0.200  0.200  0.200  0.200
    eigenvectors:
  1.000  0.000  0.000  0.000  0.000
  0.000  1.000  0.000  0.000  0.000
  0.000  0.000  1.000  0.000  0.000
  0.000  0.000  0.000  1.000  0.000
  0.000  0.000  0.000  0.000  1.000
    occupations:
  0.200  0.000  0.000  0.000  0.000
  0.000  0.200  0.000  0.000  0.000
  0.000  0.000  0.200  0.000  0.000
  0.000  0.000  0.000  0.200  0.000
  0.000  0.000  0.000  0.000  0.200
atomic mag. moment =     4.000000
atom    9   Tr[ns(na)] (up, down, total) =   5.00000  1.00000  6.00000
   spin  1
    eigenvalues: 
  1.000  1.000  1.000  1.000  1.000
    eigenvectors:
  1.000  0.000  0.000  0.000  0.000
  0.000  1.000  0.000  0.000  0.000
  0.000  0.000  1.000  0.000  0.000
  0.000  0.000  0.000  1.000  0.000
  0.000  0.000  0.000  0.000  1.000
    occupations:
  1.000  0.000  0.000  0.000  0.000
  0.000  1.000  0.000  0.000  0.000
  0.000  0.000  1.000  0.000  0.000
  0.000  0.000  0.000  1.000  0.000
  0.000  0.000  0.000  0.000  1.000
   spin  2
    eigenvalues: 
  0.200  0.200  0.200  0.200  0.200
    eigenvectors:
  1.000  0.000  0.000  0.000  0.000
  0.000  1.000  0.000  0.000  0.000
  0.000  0.000  1.000  0.000  0.000
  0.000  0.000  0.000  1.000  0.000
  0.000  0.000  0.000  0.000  1.000
    occupations:
  0.200  0.000  0.000  0.000  0.000
  0.000  0.200  0.000  0.000  0.000
  0.000  0.000  0.200  0.000  0.000
  0.000  0.000  0.000  0.200  0.000
  0.000  0.000  0.000  0.000  0.200
atomic mag. moment =     4.000000
atom   10   Tr[ns(na)] (up, down, total) =   5.00000  1.00000  6.00000
   spin  1
    eigenvalues: 
  1.000  1.000  1.000  1.000  1.000
    eigenvectors:
  1.000  0.000  0.000  0.000  0.000
  0.000  1.000  0.000  0.000  0.000
  0.000  0.000  1.000  0.000  0.000
  0.000  0.000  0.000  1.000  0.000
  0.000  0.000  0.000  0.000  1.000
    occupations:
  1.000  0.000  0.000  0.000  0.000
  0.000  1.000  0.000  0.000  0.000
  0.000  0.000  1.000  0.000  0.000
  0.000  0.000  0.000  1.000  0.000
  0.000  0.000  0.000  0.000  1.000
   spin  2
    eigenvalues: 
  0.200  0.200  0.200  0.200  0.200
    eigenvectors:
  1.000  0.000  0.000  0.000  0.000
  0.000  1.000  0.000  0.000  0.000
  0.000  0.000  1.000  0.000  0.000
  0.000  0.000  0.000  1.000  0.000
  0.000  0.000  0.000  0.000  1.000
    occupations:
  0.200  0.000  0.000  0.000  0.000
  0.000  0.200  0.000  0.000  0.000
  0.000  0.000  0.200  0.000  0.000
  0.000  0.000  0.000  0.200  0.000
  0.000  0.000  0.000  0.000  0.200
atomic mag. moment =     4.000000
atom   11   Tr[ns(na)] (up, down, total) =   5.00000  1.00000  6.00000
   spin  1
    eigenvalues: 
  1.000  1.000  1.000  1.000  1.000
    eigenvectors:
  1.000  0.000  0.000  0.000  0.000
  0.000  1.000  0.000  0.000  0.000
  0.000  0.000  1.000  0.000  0.000
  0.000  0.000  0.000  1.000  0.000
  0.000  0.000  0.000  0.000  1.000
    occupations:
  1.000  0.000  0.000  0.000  0.000
  0.000  1.000  0.000  0.000  0.000
  0.000  0.000  1.000  0.000  0.000
  0.000  0.000  0.000  1.000  0.000
  0.000  0.000  0.000  0.000  1.000
   spin  2
    eigenvalues: 
  0.200  0.200  0.200  0.200  0.200
    eigenvectors:
  1.000  0.000  0.000  0.000  0.000
  0.000  1.000  0.000  0.000  0.000
  0.000  0.000  1.000  0.000  0.000
  0.000  0.000  0.000  1.000  0.000
  0.000  0.000  0.000  0.000  1.000
    occupations:
  0.200  0.000  0.000  0.000  0.000
  0.000  0.200  0.000  0.000  0.000
  0.000  0.000  0.200  0.000  0.000
  0.000  0.000  0.000  0.200  0.000
  0.000  0.000  0.000  0.000  0.200
atomic mag. moment =     4.000000
atom   12   Tr[ns(na)] (up, down, total) =   5.00000  1.00000  6.00000
   spin  1
    eigenvalues: 
  1.000  1.000  1.000  1.000  1.000
    eigenvectors:
  1.000  0.000  0.000  0.000  0.000
  0.000  1.000  0.000  0.000  0.000
  0.000  0.000  1.000  0.000  0.000
  0.000  0.000  0.000  1.000  0.000
  0.000  0.000  0.000  0.000  1.000
    occupations:
  1.000  0.000  0.000  0.000  0.000
  0.000  1.000  0.000  0.000  0.000
  0.000  0.000  1.000  0.000  0.000
  0.000  0.000  0.000  1.000  0.000
  0.000  0.000  0.000  0.000  1.000
   spin  2
    eigenvalues: 
  0.200  0.200  0.200  0.200  0.200
    eigenvectors:
  1.000  0.000  0.000  0.000  0.000
  0.000  1.000  0.000  0.000  0.000
  0.000  0.000  1.000  0.000  0.000
  0.000  0.000  0.000  1.000  0.000
  0.000  0.000  0.000  0.000  1.000
    occupations:
  0.200  0.000  0.000  0.000  0.000
  0.000  0.200  0.000  0.000  0.000
  0.000  0.000  0.200  0.000  0.000
  0.000  0.000  0.000  0.200  0.000
  0.000  0.000  0.000  0.000  0.200
atomic mag. moment =     4.000000
atom   13   Tr[ns(na)] (up, down, total) =   5.00000  1.00000  6.00000
   spin  1
    eigenvalues: 
  1.000  1.000  1.000  1.000  1.000
    eigenvectors:
  1.000  0.000  0.000  0.000  0.000
  0.000  1.000  0.000  0.000  0.000
  0.000  0.000  1.000  0.000  0.000
  0.000  0.000  0.000  1.000  0.000
  0.000  0.000  0.000  0.000  1.000
    occupations:
  1.000  0.000  0.000  0.000  0.000
  0.000  1.000  0.000  0.000  0.000
  0.000  0.000  1.000  0.000  0.000
  0.000  0.000  0.000  1.000  0.000
  0.000  0.000  0.000  0.000  1.000
   spin  2
    eigenvalues: 
  0.200  0.200  0.200  0.200  0.200
    eigenvectors:
  1.000  0.000  0.000  0.000  0.000
  0.000  1.000  0.000  0.000  0.000
  0.000  0.000  1.000  0.000  0.000
  0.000  0.000  0.000  1.000  0.000
  0.000  0.000  0.000  0.000  1.000
    occupations:
  0.200  0.000  0.000  0.000  0.000
  0.000  0.200  0.000  0.000  0.000
  0.000  0.000  0.200  0.000  0.000
  0.000  0.000  0.000  0.200  0.000
  0.000  0.000  0.000  0.000  0.200
atomic mag. moment =     4.000000
atom   14   Tr[ns(na)] (up, down, total) =   5.00000  1.00000  6.00000
   spin  1
    eigenvalues: 
  1.000  1.000  1.000  1.000  1.000
    eigenvectors:
  1.000  0.000  0.000  0.000  0.000
  0.000  1.000  0.000  0.000  0.000
  0.000  0.000  1.000  0.000  0.000
  0.000  0.000  0.000  1.000  0.000
  0.000  0.000  0.000  0.000  1.000
    occupations:
  1.000  0.000  0.000  0.000  0.000
  0.000  1.000  0.000  0.000  0.000
  0.000  0.000  1.000  0.000  0.000
  0.000  0.000  0.000  1.000  0.000
  0.000  0.000  0.000  0.000  1.000
   spin  2
    eigenvalues: 
  0.200  0.200  0.200  0.200  0.200
    eigenvectors:
  1.000  0.000  0.000  0.000  0.000
  0.000  1.000  0.000  0.000  0.000
  0.000  0.000  1.000  0.000  0.000
  0.000  0.000  0.000  1.000  0.000
  0.000  0.000  0.000  0.000  1.000
    occupations:
  0.200  0.000  0.000  0.000  0.000
  0.000  0.200  0.000  0.000  0.000
  0.000  0.000  0.200  0.000  0.000
  0.000  0.000  0.000  0.200  0.000
  0.000  0.000  0.000  0.000  0.200
atomic mag. moment =     4.000000
atom   15   Tr[ns(na)] (up, down, total) =   5.00000  1.00000  6.00000
   spin  1
    eigenvalues: 
  1.000  1.000  1.000  1.000  1.000
    eigenvectors:
  1.000  0.000  0.000  0.000  0.000
  0.000  1.000  0.000  0.000  0.000
  0.000  0.000  1.000  0.000  0.000
  0.000  0.000  0.000  1.000  0.000
  0.000  0.000  0.000  0.000  1.000
    occupations:
  1.000  0.000  0.000  0.000  0.000
  0.000  1.000  0.000  0.000  0.000
  0.000  0.000  1.000  0.000  0.000
  0.000  0.000  0.000  1.000  0.000
  0.000  0.000  0.000  0.000  1.000
   spin  2
    eigenvalues: 
  0.200  0.200  0.200  0.200  0.200
    eigenvectors:
  1.000  0.000  0.000  0.000  0.000
  0.000  1.000  0.000  0.000  0.000
  0.000  0.000  1.000  0.000  0.000
  0.000  0.000  0.000  1.000  0.000
  0.000  0.000  0.000  0.000  1.000
    occupations:
  0.200  0.000  0.000  0.000  0.000
  0.000  0.200  0.000  0.000  0.000
  0.000  0.000  0.200  0.000  0.000
  0.000  0.000  0.000  0.200  0.000
  0.000  0.000  0.000  0.000  0.200
atomic mag. moment =     4.000000
atom   16   Tr[ns(na)] (up, down, total) =   5.00000  1.00000  6.00000
   spin  1
    eigenvalues: 
  1.000  1.000  1.000  1.000  1.000
    eigenvectors:
  1.000  0.000  0.000  0.000  0.000
  0.000  1.000  0.000  0.000  0.000
  0.000  0.000  1.000  0.000  0.000
  0.000  0.000  0.000  1.000  0.000
  0.000  0.000  0.000  0.000  1.000
    occupations:
  1.000  0.000  0.000  0.000  0.000
  0.000  1.000  0.000  0.000  0.000
  0.000  0.000  1.000  0.000  0.000
  0.000  0.000  0.000  1.000  0.000
  0.000  0.000  0.000  0.000  1.000
   spin  2
    eigenvalues: 
  0.200  0.200  0.200  0.200  0.200
    eigenvectors:
  1.000  0.000  0.000  0.000  0.000
  0.000  1.000  0.000  0.000  0.000
  0.000  0.000  1.000  0.000  0.000
  0.000  0.000  0.000  1.000  0.000
  0.000  0.000  0.000  0.000  1.000
    occupations:
  0.200  0.000  0.000  0.000  0.000
  0.000  0.200  0.000  0.000  0.000
  0.000  0.000  0.200  0.000  0.000
  0.000  0.000  0.000  0.200  0.000
  0.000  0.000  0.000  0.000  0.200
atomic mag. moment =     4.000000
atom   17   Tr[ns(na)] (up, down, total) =   5.00000  1.00000  6.00000
   spin  1
    eigenvalues: 
  1.000  1.000  1.000  1.000  1.000
    eigenvectors:
  1.000  0.000  0.000  0.000  0.000
  0.000  1.000  0.000  0.000  0.000
  0.000  0.000  1.000  0.000  0.000
  0.000  0.000  0.000  1.000  0.000
  0.000  0.000  0.000  0.000  1.000
    occupations:
  1.000  0.000  0.000  0.000  0.000
  0.000  1.000  0.000  0.000  0.000
  0.000  0.000  1.000  0.000  0.000
  0.000  0.000  0.000  1.000  0.000
  0.000  0.000  0.000  0.000  1.000
   spin  2
    eigenvalues: 
  0.200  0.200  0.200  0.200  0.200
    eigenvectors:
  1.000  0.000  0.000  0.000  0.000
  0.000  1.000  0.000  0.000  0.000
  0.000  0.000  1.000  0.000  0.000
  0.000  0.000  0.000  1.000  0.000
  0.000  0.000  0.000  0.000  1.000
    occupations:
  0.200  0.000  0.000  0.000  0.000
  0.000  0.200  0.000  0.000  0.000
  0.000  0.000  0.200  0.000  0.000
  0.000  0.000  0.000  0.200  0.000
  0.000  0.000  0.000  0.000  0.200
atomic mag. moment =     4.000000
atom   18   Tr[ns(na)] (up, down, total) =   5.00000  1.00000  6.00000
   spin  1
    eigenvalues: 
  1.000  1.000  1.000  1.000  1.000
    eigenvectors:
  1.000  0.000  0.000  0.000  0.000
  0.000  1.000  0.000  0.000  0.000
  0.000  0.000  1.000  0.000  0.000
  0.000  0.000  0.000  1.000  0.000
  0.000  0.000  0.000  0.000  1.000
    occupations:
  1.000  0.000  0.000  0.000  0.000
  0.000  1.000  0.000  0.000  0.000
  0.000  0.000  1.000  0.000  0.000
  0.000  0.000  0.000  1.000  0.000
  0.000  0.000  0.000  0.000  1.000
   spin  2
    eigenvalues: 
  0.200  0.200  0.200  0.200  0.200
    eigenvectors:
  1.000  0.000  0.000  0.000  0.000
  0.000  1.000  0.000  0.000  0.000
  0.000  0.000  1.000  0.000  0.000
  0.000  0.000  0.000  1.000  0.000
  0.000  0.000  0.000  0.000  1.000
    occupations:
  0.200  0.000  0.000  0.000  0.000
  0.000  0.200  0.000  0.000  0.000
  0.000  0.000  0.200  0.000  0.000
  0.000  0.000  0.000  0.200  0.000
  0.000  0.000  0.000  0.000  0.200
atomic mag. moment =     4.000000
atom   19   Tr[ns(na)] (up, down, total) =   5.00000  1.00000  6.00000
   spin  1
    eigenvalues: 
  1.000  1.000  1.000  1.000  1.000
    eigenvectors:
  1.000  0.000  0.000  0.000  0.000
  0.000  1.000  0.000  0.000  0.000
  0.000  0.000  1.000  0.000  0.000
  0.000  0.000  0.000  1.000  0.000
  0.000  0.000  0.000  0.000  1.000
    occupations:
  1.000  0.000  0.000  0.000  0.000
  0.000  1.000  0.000  0.000  0.000
  0.000  0.000  1.000  0.000  0.000
  0.000  0.000  0.000  1.000  0.000
  0.000  0.000  0.000  0.000  1.000
   spin  2
    eigenvalues: 
  0.200  0.200  0.200  0.200  0.200
    eigenvectors:
  1.000  0.000  0.000  0.000  0.000
  0.000  1.000  0.000  0.000  0.000
  0.000  0.000  1.000  0.000  0.000
  0.000  0.000  0.000  1.000  0.000
  0.000  0.000  0.000  0.000  1.000
    occupations:
  0.200  0.000  0.000  0.000  0.000
  0.000  0.200  0.000  0.000  0.000
  0.000  0.000  0.200  0.000  0.000
  0.000  0.000  0.000  0.200  0.000
  0.000  0.000  0.000  0.000  0.200
atomic mag. moment =     4.000000
atom   20   Tr[ns(na)] (up, down, total) =   5.00000  1.00000  6.00000
   spin  1
    eigenvalues: 
  1.000  1.000  1.000  1.000  1.000
    eigenvectors:
  1.000  0.000  0.000  0.000  0.000
  0.000  1.000  0.000  0.000  0.000
  0.000  0.000  1.000  0.000  0.000
  0.000  0.000  0.000  1.000  0.000
  0.000  0.000  0.000  0.000  1.000
    occupations:
  1.000  0.000  0.000  0.000  0.000
  0.000  1.000  0.000  0.000  0.000
  0.000  0.000  1.000  0.000  0.000
  0.000  0.000  0.000  1.000  0.000
  0.000  0.000  0.000  0.000  1.000
   spin  2
    eigenvalues: 
  0.200  0.200  0.200  0.200  0.200
    eigenvectors:
  1.000  0.000  0.000  0.000  0.000
  0.000  1.000  0.000  0.000  0.000
  0.000  0.000  1.000  0.000  0.000
  0.000  0.000  0.000  1.000  0.000
  0.000  0.000  0.000  0.000  1.000
    occupations:
  0.200  0.000  0.000  0.000  0.000
  0.000  0.200  0.000  0.000  0.000
  0.000  0.000  0.200  0.000  0.000
  0.000  0.000  0.000  0.200  0.000
  0.000  0.000  0.000  0.000  0.200
atomic mag. moment =     4.000000
N of occupied +U levels = 120.0000000
 --- exit write_ns ---
 Atomic wfc used for LDA+U Projector are NOT orthogonalized
     Starting wfc are  266 randomized atomic wfcs
     Checking if some PAW data can be deallocated... 
       node    0, deallocated PAW data for type:  2
       node    0, deallocated PAW data for type:  3
       node    1, deallocated PAW data for type:  2
       node    1, deallocated PAW data for type:  3
       node    2, deallocated PAW data for type:  2
       node    2, deallocated PAW data for type:  3
       node    3, deallocated PAW data for type:  2
       node    3, deallocated PAW data for type:  3
       node    4, deallocated PAW data for type:  2
       node    4, deallocated PAW data for type:  3
       node    5, deallocated PAW data for type:  2
       node    5, deallocated PAW data for type:  3
       node    6, deallocated PAW data for type:  2
       node    6, deallocated PAW data for type:  3
       node    7, deallocated PAW data for type:  2
       node    7, deallocated PAW data for type:  3
       node    8, deallocated PAW data for type:  2
       node    8, deallocated PAW data for type:  3
       node    9, deallocated PAW data for type:  2
       node    9, deallocated PAW data for type:  3
       node   10, deallocated PAW data for type:  2
       node   10, deallocated PAW data for type:  3
       node   11, deallocated PAW data for type:  2
       node   11, deallocated PAW data for type:  3
       node   12, deallocated PAW data for type:  2
       node   12, deallocated PAW data for type:  3
       node   13, deallocated PAW data for type:  2
       node   13, deallocated PAW data for type:  3
       node   14, deallocated PAW data for type:  2
       node   14, deallocated PAW data for type:  3
       node   15, deallocated PAW data for type:  2
       node   15, deallocated PAW data for type:  3
       node   16, deallocated PAW data for type:  2
       node   16, deallocated PAW data for type:  3
       node   17, deallocated PAW data for type:  2
       node   17, deallocated PAW data for type:  3
       node   18, deallocated PAW data for type:  2
       node   18, deallocated PAW data for type:  3
       node   19, deallocated PAW data for type:  2
       node   19, deallocated PAW data for type:  3
       node   20, deallocated PAW data for type:  2
       node   20, deallocated PAW data for type:  3
       node   21, deallocated PAW data for type:  2
       node   21, deallocated PAW data for type:  3
       node   22, deallocated PAW data for type:  2
       node   22, deallocated PAW data for type:  3
       node   23, deallocated PAW data for type:  2
       node   23, deallocated PAW data for type:  3
       node   24, deallocated PAW data for type:  2
       node   24, deallocated PAW data for type:  3
       node   25, deallocated PAW data for type:  2
       node   25, deallocated PAW data for type:  3
       node   26, deallocated PAW data for type:  2
       node   26, deallocated PAW data for type:  3
       node   27, deallocated PAW data for type:  2
       node   27, deallocated PAW data for type:  3
       node   28, deallocated PAW data for type:  2
       node   28, deallocated PAW data for type:  3
       node   29, deallocated PAW data for type:  2
       node   29, deallocated PAW data for type:  3
       node   30, deallocated PAW data for type:  2
       node   30, deallocated PAW data for type:  3
       node   31, deallocated PAW data for type:  2
       node   31, deallocated PAW data for type:  3
       node   32, deallocated PAW data for type:  2
       node   32, deallocated PAW data for type:  3
       node   33, deallocated PAW data for type:  2
       node   33, deallocated PAW data for type:  3
       node   34, deallocated PAW data for type:  2
       node   34, deallocated PAW data for type:  3
       node   35, deallocated PAW data for type:  2
       node   35, deallocated PAW data for type:  3
       node   36, deallocated PAW data for type:  2
       node   36, deallocated PAW data for type:  3
       node   37, deallocated PAW data for type:  2
       node   37, deallocated PAW data for type:  3
       node   38, deallocated PAW data for type:  2
       node   38, deallocated PAW data for type:  3
       node   39, deallocated PAW data for type:  2
       node   39, deallocated PAW data for type:  3
       node   40, deallocated PAW data for type:  2
       node   40, deallocated PAW data for type:  3
       node   41, deallocated PAW data for type:  2
       node   41, deallocated PAW data for type:  3
       node   42, deallocated PAW data for type:  1
       node   42, deallocated PAW data for type:  3
       node   43, deallocated PAW data for type:  1
       node   43, deallocated PAW data for type:  3
       node   44, deallocated PAW data for type:  1
       node   44, deallocated PAW data for type:  2
       node   45, deallocated PAW data for type:  1
       node   45, deallocated PAW data for type:  2
       node   46, deallocated PAW data for type:  1
       node   46, deallocated PAW data for type:  2
       node   47, deallocated PAW data for type:  1
       node   47, deallocated PAW data for type:  2

     total cpu time spent up to now is       46.6 secs

     per-process dynamical memory:   313.4 Mb

     Self-consistent Calculation

     iteration #  1     ecut=    95.00 Ry     beta=0.50
     Davidson diagonalization with overlap
     ethr =  1.00E-02,  avg # of iterations =  2.9
 --- enter write_ns ---
 LDA+U parameters:
U( 1)     =  0.00000000
alpha( 1) =  0.00000000
atom    1   Tr[ns(na)] (up, down, total) =   4.97467  1.27989  6.25456
   spin  1
    eigenvalues: 
  0.993  0.995  0.996  0.996  0.996
    eigenvectors:
  0.939  0.011  0.047  0.003  0.000
  0.004  0.343  0.002  0.010  0.640
  0.004  0.643  0.004  0.009  0.340
  0.002  0.000  0.004  0.975  0.019
  0.051  0.004  0.943  0.002  0.000
    occupations:
  0.993 -0.000 -0.000  0.000 -0.001
 -0.000  0.996 -0.001  0.000 -0.000
 -0.000 -0.001  0.995 -0.000 -0.000
  0.000  0.000 -0.000  0.996  0.000
 -0.001 -0.000 -0.000  0.000  0.995
   spin  2
    eigenvalues: 
  0.190  0.214  0.249  0.289  0.338
    eigenvectors:
  0.000  0.000  0.921  0.000  0.079
  0.336  0.664  0.000  0.000  0.000
  0.664  0.336  0.000  0.000  0.000
  0.000  0.000  0.009  0.887  0.104
  0.000  0.000  0.071  0.113  0.817
    occupations:
  0.256 -0.000 -0.000 -0.008  0.023
 -0.000  0.206 -0.011 -0.000 -0.000
 -0.000 -0.011  0.198  0.000 -0.000
 -0.008 -0.000  0.000  0.294 -0.013
  0.023 -0.000 -0.000 -0.013  0.326
atomic mag. moment =     3.694779
atom    2   Tr[ns(na)] (up, down, total) =   4.97459  1.27861  6.25321
   spin  1
    eigenvalues: 
  0.992  0.995  0.996  0.996  0.996
    eigenvectors:
  0.938  0.011  0.048  0.003  0.000
  0.005  0.339  0.002  0.005  0.649
  0.003  0.647  0.004  0.006  0.339
  0.003  0.000  0.000  0.986  0.011
  0.051  0.003  0.946  0.000  0.000
    occupations:
  0.993  0.000  0.000  0.000 -0.001
  0.000  0.996 -0.001 -0.000  0.000
  0.000 -0.001  0.995  0.000  0.000
  0.000 -0.000  0.000  0.996  0.000
 -0.001  0.000  0.000  0.000  0.995
   spin  2
    eigenvalues: 
  0.190  0.214  0.249  0.289  0.337
    eigenvectors:
  0.000  0.000  0.917  0.000  0.082
  0.336  0.664  0.000  0.000  0.000
  0.664  0.336  0.000  0.000  0.000
  0.000  0.000  0.011  0.886  0.103
  0.000  0.000  0.071  0.114  0.815
    occupations:
  0.256  0.000  0.000 -0.009  0.023
  0.000  0.206 -0.011 -0.000  0.000
  0.000 -0.011  0.198  0.000  0.001
 -0.009 -0.000  0.000  0.293 -0.013
  0.023  0.000  0.001 -0.013  0.326
atomic mag. moment =     3.695981
atom    3   Tr[ns(na)] (up, down, total) =   4.97466  1.28018  6.25484
   spin  1
    eigenvalues: 
  0.992  0.995  0.996  0.996  0.996
    eigenvectors:
  0.950  0.000  0.045  0.001  0.005
  0.001  0.348  0.011  0.016  0.624
  0.001  0.651  0.002  0.016  0.330
  0.010  0.000  0.237  0.712  0.041
  0.038  0.001  0.705  0.255  0.000
    occupations:
  0.992  0.000 -0.000  0.000 -0.001
  0.000  0.996 -0.001  0.000  0.000
 -0.000 -0.001  0.995  0.000  0.000
  0.000  0.000  0.000  0.996  0.000
 -0.001  0.000  0.000  0.000  0.996
   spin  2
    eigenvalues: 
  0.191  0.214  0.249  0.289  0.338
    eigenvectors:
  0.000  0.000  0.916  0.000  0.084
  0.332  0.668  0.000  0.000  0.000
  0.668  0.332  0.000  0.000  0.000
  0.000  0.000  0.011  0.882  0.107
  0.000  0.000  0.073  0.118  0.809
    occupations:
  0.256 -0.000 -0.000 -0.009  0.023
 -0.000  0.206 -0.011 -0.000 -0.000
 -0.000 -0.011  0.198 -0.000  0.000
 -0.009 -0.000 -0.000  0.294 -0.013
  0.023 -0.000  0.000 -0.013  0.326
atomic mag. moment =     3.694475
atom    4   Tr[ns(na)] (up, down, total) =   4.97453  1.27732  6.25185
   spin  1
    eigenvalues: 
  0.992  0.995  0.996  0.996  0.996
    eigenvectors:
  0.951  0.000  0.042  0.001  0.005
  0.002  0.341  0.009  0.007  0.641
  0.001  0.658  0.003  0.010  0.327
  0.008  0.000  0.280  0.685  0.027
  0.038  0.001  0.665  0.296  0.000
    occupations:
  0.992 -0.000  0.000  0.000 -0.001
 -0.000  0.996 -0.001 -0.000 -0.000
  0.000 -0.001  0.995 -0.000 -0.000
  0.000 -0.000 -0.000  0.996  0.000
 -0.001 -0.000 -0.000  0.000  0.996
   spin  2
    eigenvalues: 
  0.189  0.214  0.248  0.289  0.337
    eigenvectors:
  0.000  0.000  0.918  0.000  0.082
  0.335  0.665  0.000  0.000  0.000
  0.665  0.335  0.000  0.000  0.000
  0.000  0.000  0.009  0.892  0.100
  0.000  0.000  0.073  0.108  0.818
    occupations:
  0.256 -0.000  0.000 -0.008  0.023
 -0.000  0.206 -0.012 -0.000  0.000
  0.000 -0.012  0.197  0.000  0.000
 -0.008 -0.000  0.000  0.293 -0.013
  0.023  0.000  0.000 -0.013  0.326
atomic mag. moment =     3.697213
atom    5   Tr[ns(na)] (up, down, total) =   4.97448  2.21685  7.19134
   spin  1
    eigenvalues: 
  0.994  0.994  0.995  0.996  0.996
    eigenvectors:
  0.088  0.889  0.000  0.001  0.022
  0.000  0.000  0.348  0.570  0.082
  0.000  0.001  0.646  0.267  0.086
  0.834  0.055  0.000  0.020  0.091
  0.078  0.056  0.005  0.142  0.719
    occupations:
  0.994  0.000 -0.000  0.000 -0.000
  0.000  0.996 -0.000 -0.000 -0.000
 -0.000 -0.000  0.995 -0.000  0.000
  0.000 -0.000 -0.000  0.994 -0.001
 -0.000 -0.000  0.000 -0.001  0.996
   spin  2
    eigenvalues: 
  0.376  0.379  0.477  0.490  0.494
    eigenvectors:
  0.260  0.000  0.736  0.002  0.001
  0.000  0.667  0.001  0.000  0.332
  0.000  0.333  0.001  0.000  0.665
  0.083  0.000  0.015  0.901  0.000
  0.656  0.000  0.246  0.096  0.001
    occupations:
  0.451 -0.001 -0.000 -0.015  0.042
 -0.001  0.417  0.054 -0.000 -0.001
 -0.000  0.054  0.456  0.000 -0.000
 -0.015 -0.000  0.000  0.480  0.027
  0.042 -0.001 -0.000  0.027  0.412
atomic mag. moment =     2.757627
atom    6   Tr[ns(na)] (up, down, total) =   4.97432  2.21693  7.19125
   spin  1
    eigenvalues: 
  0.993  0.994  0.995  0.996  0.996
    eigenvectors:
  0.893  0.089  0.000  0.003  0.015
  0.000  0.000  0.303  0.437  0.260
  0.000  0.000  0.693  0.148  0.159
  0.058  0.830  0.000  0.050  0.062
  0.048  0.081  0.004  0.362  0.505
    occupations:
  0.994 -0.000  0.000  0.000 -0.000
 -0.000  0.996 -0.001  0.000  0.000
  0.000 -0.001  0.995  0.000 -0.000
  0.000  0.000  0.000  0.994 -0.001
 -0.000  0.000 -0.000 -0.001  0.996
   spin  2
    eigenvalues: 
  0.377  0.379  0.476  0.490  0.495
    eigenvectors:
  0.258  0.001  0.739  0.000  0.002
  0.004  0.663  0.000  0.002  0.332
  0.001  0.332  0.002  0.004  0.661
  0.081  0.001  0.029  0.884  0.006
  0.655  0.003  0.230  0.111  0.000
    occupations:
  0.450  0.001  0.001 -0.014  0.041
  0.001  0.417  0.055 -0.001 -0.000
  0.001  0.055  0.456  0.000 -0.000
 -0.014 -0.001  0.000  0.480  0.027
  0.041 -0.000 -0.000  0.027  0.413
atomic mag. moment =     2.757389
atom    7   Tr[ns(na)] (up, down, total) =   4.97428  2.21631  7.19059
   spin  1
    eigenvalues: 
  0.993  0.994  0.995  0.996  0.996
    eigenvectors:
  0.792  0.189  0.000  0.003  0.015
  0.001  0.001  0.298  0.474  0.227
  0.000  0.000  0.696  0.157  0.147
  0.139  0.748  0.000  0.044  0.069
  0.067  0.062  0.005  0.322  0.543
    occupations:
  0.994  0.000 -0.000  0.000 -0.000
  0.000  0.996 -0.001 -0.000 -0.000
 -0.000 -0.001  0.995 -0.000  0.000
  0.000 -0.000 -0.000  0.994 -0.001
 -0.000 -0.000  0.000 -0.001  0.996
   spin  2
    eigenvalues: 
  0.376  0.379  0.476  0.490  0.495
    eigenvectors:
  0.256  0.000  0.744  0.000  0.000
  0.001  0.663  0.000  0.001  0.335
  0.001  0.336  0.000  0.001  0.663
  0.083  0.000  0.030  0.885  0.002
  0.660  0.001  0.225  0.113  0.000
    occupations:
  0.451 -0.000 -0.000 -0.014  0.041
 -0.000  0.418  0.055  0.000  0.000
 -0.000  0.055  0.456  0.000  0.000
 -0.014  0.000  0.000  0.480  0.028
  0.041  0.000  0.000  0.028  0.412
atomic mag. moment =     2.757967
atom    8   Tr[ns(na)] (up, down, total) =   4.97451  2.21636  7.19088
   spin  1
    eigenvalues: 
  0.994  0.994  0.995  0.996  0.996
    eigenvectors:
  0.020  0.956  0.000  0.003  0.021
  0.000  0.000  0.357  0.520  0.123
  0.000  0.000  0.638  0.246  0.115
  0.884  0.007  0.000  0.027  0.081
  0.096  0.036  0.005  0.204  0.660
    occupations:
  0.994 -0.000  0.000  0.000 -0.000
 -0.000  0.996 -0.000  0.000  0.000
  0.000 -0.000  0.995  0.000 -0.000
  0.000  0.000  0.000  0.994 -0.001
 -0.000  0.000 -0.000 -0.001  0.996
   spin  2
    eigenvalues: 
  0.377  0.379  0.476  0.490  0.495
    eigenvectors:
  0.247  0.008  0.745  0.000  0.000
  0.021  0.648  0.000  0.001  0.330
  0.011  0.320  0.000  0.002  0.667
  0.080  0.003  0.029  0.885  0.002
  0.640  0.022  0.225  0.112  0.000
    occupations:
  0.451  0.000 -0.000 -0.014  0.041
  0.000  0.417  0.055 -0.000  0.000
 -0.000  0.055  0.457 -0.000  0.000
 -0.014 -0.000 -0.000  0.480  0.028
  0.041  0.000  0.000  0.028  0.412
atomic mag. moment =     2.758147
atom    9   Tr[ns(na)] (up, down, total) =   4.97508  2.23071  7.20579
   spin  1
    eigenvalues: 
  0.994  0.994  0.995  0.996  0.996
    eigenvectors:
  0.591  0.199  0.005  0.024  0.181
  0.019  0.003  0.281  0.481  0.216
  0.000  0.003  0.711  0.176  0.110
  0.100  0.777  0.002  0.050  0.071
  0.291  0.018  0.000  0.269  0.422
    occupations:
  0.994  0.000 -0.000  0.000 -0.001
  0.000  0.996 -0.000 -0.000  0.000
 -0.000 -0.000  0.995  0.000  0.000
  0.000 -0.000  0.000  0.994 -0.001
 -0.001  0.000  0.000 -0.001  0.995
   spin  2
    eigenvalues: 
  0.377  0.381  0.485  0.487  0.499
    eigenvectors:
  0.003  0.236  0.001  0.001  0.758
  0.662  0.007  0.221  0.109  0.001
  0.327  0.004  0.451  0.216  0.002
  0.001  0.084  0.283  0.608  0.023
  0.008  0.668  0.043  0.065  0.215
    occupations:
  0.471  0.000  0.001 -0.017  0.047
  0.000  0.413  0.051  0.001  0.001
  0.001  0.051  0.450  0.000  0.000
 -0.017  0.001  0.000  0.478  0.024
  0.047  0.001  0.000  0.024  0.418
atomic mag. moment =     2.744372
atom   10   Tr[ns(na)] (up, down, total) =   4.97501  2.23522  7.21023
   spin  1
    eigenvalues: 
  0.994  0.994  0.995  0.996  0.996
    eigenvectors:
  0.696  0.087  0.007  0.047  0.163
  0.024  0.001  0.304  0.371  0.301
  0.000  0.002  0.686  0.145  0.167
  0.022  0.862  0.003  0.064  0.050
  0.258  0.048  0.000  0.374  0.320
    occupations:
  0.994 -0.000  0.000  0.000 -0.001
 -0.000  0.996 -0.000  0.000 -0.000
  0.000 -0.000  0.995 -0.000 -0.000
  0.000  0.000 -0.000  0.994 -0.001
 -0.001 -0.000 -0.000 -0.001  0.995
   spin  2
    eigenvalues: 
  0.378  0.382  0.487  0.488  0.501
    eigenvectors:
  0.000  0.242  0.002  0.000  0.756
  0.667  0.001  0.305  0.026  0.001
  0.331  0.001  0.614  0.052  0.002
  0.000  0.084  0.067  0.821  0.028
  0.001  0.672  0.012  0.100  0.214
    occupations:
  0.472 -0.000 -0.000 -0.017  0.048
 -0.000  0.414  0.051 -0.000 -0.001
 -0.000  0.051  0.451  0.000 -0.001
 -0.017 -0.000  0.000  0.479  0.024
  0.048 -0.001 -0.001  0.024  0.419
atomic mag. moment =     2.739799
atom   11   Tr[ns(na)] (up, down, total) =   4.97472  2.22175  7.19647
   spin  1
    eigenvalues: 
  0.994  0.994  0.995  0.996  0.996
    eigenvectors:
  0.828  0.027  0.001  0.038  0.107
  0.002  0.005  0.285  0.442  0.265
  0.002  0.007  0.696  0.132  0.162
  0.079  0.831  0.016  0.033  0.042
  0.089  0.131  0.001  0.356  0.424
    occupations:
  0.994 -0.000  0.000  0.000 -0.001
 -0.000  0.996 -0.001 -0.000  0.000
  0.000 -0.001  0.995 -0.000 -0.000
  0.000 -0.000 -0.000  0.994 -0.000
 -0.001  0.000 -0.000 -0.000  0.996
   spin  2
    eigenvalues: 
  0.377  0.381  0.482  0.486  0.496
    eigenvectors:
  0.000  0.249  0.012  0.000  0.739
  0.667  0.001  0.325  0.001  0.006
  0.331  0.001  0.657  0.001  0.010
  0.000  0.083  0.003  0.888  0.025
  0.001  0.666  0.002  0.110  0.220
    occupations:
  0.467 -0.001 -0.001 -0.017  0.047
 -0.001  0.412  0.049  0.000 -0.001
 -0.001  0.049  0.447  0.000 -0.001
 -0.017  0.000  0.000  0.477  0.024
  0.047 -0.001 -0.001  0.024  0.418
atomic mag. moment =     2.752966
atom   12   Tr[ns(na)] (up, down, total) =   4.97472  2.21983  7.19454
   spin  1
    eigenvalues: 
  0.994  0.994  0.995  0.996  0.996
    eigenvectors:
  0.818  0.034  0.002  0.038  0.107
  0.002  0.008  0.289  0.438  0.263
  0.002  0.007  0.689  0.131  0.171
  0.092  0.816  0.020  0.030  0.043
  0.085  0.134  0.001  0.363  0.417
    occupations:
  0.994  0.000 -0.000  0.000 -0.001
  0.000  0.996 -0.001  0.000 -0.000
 -0.000 -0.001  0.995  0.000  0.000
  0.000  0.000  0.000  0.994 -0.000
 -0.001 -0.000  0.000 -0.000  0.996
   spin  2
    eigenvalues: 
  0.377  0.381  0.481  0.485  0.496
    eigenvectors:
  0.001  0.245  0.005  0.000  0.749
  0.669  0.004  0.324  0.000  0.002
  0.325  0.002  0.669  0.000  0.005
  0.000  0.084  0.000  0.886  0.030
  0.004  0.666  0.002  0.114  0.214
    occupations:
  0.467  0.001  0.001 -0.017  0.047
  0.001  0.411  0.049  0.000  0.001
  0.001  0.049  0.447 -0.000  0.000
 -0.017  0.000 -0.000  0.477  0.024
  0.047  0.001  0.000  0.024  0.417
atomic mag. moment =     2.754890
atom   13   Tr[ns(na)] (up, down, total) =   4.97528  2.22680  7.20208
   spin  1
    eigenvalues: 
  0.994  0.994  0.995  0.996  0.996
    eigenvectors:
  0.904  0.003  0.010  0.000  0.083
  0.010  0.008  0.466  0.501  0.014
  0.017  0.002  0.447  0.493  0.042
  0.001  0.867  0.029  0.000  0.103
  0.069  0.120  0.049  0.005  0.758
    occupations:
  0.994 -0.000 -0.000  0.000 -0.001
 -0.000  0.995 -0.000  0.000  0.000
 -0.000 -0.000  0.996 -0.000  0.000
  0.000  0.000 -0.000  0.994 -0.001
 -0.001  0.000  0.000 -0.001  0.996
   spin  2
    eigenvalues: 
  0.375  0.381  0.476  0.490  0.505
    eigenvectors:
  0.243  0.032  0.690  0.005  0.029
  0.119  0.558  0.004  0.004  0.315
  0.057  0.263  0.035  0.006  0.639
  0.070  0.014  0.006  0.898  0.012
  0.511  0.132  0.265  0.087  0.005
    occupations:
  0.449 -0.007 -0.001 -0.017  0.042
 -0.007  0.420  0.057  0.000 -0.002
 -0.001  0.057  0.464  0.002 -0.001
 -0.017  0.000  0.002  0.480  0.027
  0.042 -0.002 -0.001  0.027  0.413
atomic mag. moment =     2.748479
atom   14   Tr[ns(na)] (up, down, total) =   4.97532  2.26531  7.24063
   spin  1
    eigenvalues: 
  0.994  0.994  0.995  0.996  0.996
    eigenvectors:
  0.807  0.000  0.143  0.049  0.000
  0.049  0.003  0.100  0.152  0.697
  0.086  0.000  0.752  0.093  0.070
  0.003  0.896  0.000  0.063  0.037
  0.056  0.101  0.005  0.642  0.196
    occupations:
  0.994  0.000  0.000  0.000 -0.000
  0.000  0.996 -0.000 -0.000  0.000
  0.000 -0.000  0.995 -0.000  0.000
  0.000 -0.000 -0.000  0.994 -0.001
 -0.000  0.000  0.000 -0.001  0.996
   spin  2
    eigenvalues: 
  0.380  0.384  0.488  0.498  0.516
    eigenvectors:
  0.229  0.013  0.751  0.004  0.003
  0.049  0.623  0.003  0.000  0.325
  0.017  0.311  0.003  0.002  0.667
  0.065  0.008  0.007  0.919  0.001
  0.639  0.045  0.236  0.075  0.004
    occupations:
  0.462 -0.001  0.001 -0.015  0.044
 -0.001  0.427  0.062  0.001  0.003
  0.001  0.062  0.473 -0.001  0.002
 -0.015  0.001 -0.001  0.489  0.027
  0.044  0.003  0.002  0.027  0.415
atomic mag. moment =     2.710006
atom   15   Tr[ns(na)] (up, down, total) =   4.97530  2.26469  7.23998
   spin  1
    eigenvalues: 
  0.994  0.994  0.995  0.996  0.996
    eigenvectors:
  0.822  0.000  0.135  0.042  0.000
  0.045  0.003  0.108  0.082  0.763
  0.080  0.000  0.750  0.078  0.091
  0.006  0.888  0.000  0.076  0.030
  0.046  0.109  0.007  0.722  0.116
    occupations:
  0.994 -0.000 -0.000  0.000 -0.000
 -0.000  0.996 -0.000  0.000 -0.000
 -0.000 -0.000  0.995  0.000 -0.000
  0.000  0.000  0.000  0.994 -0.001
 -0.000 -0.000 -0.000 -0.001  0.996
   spin  2
    eigenvalues: 
  0.380  0.384  0.488  0.497  0.516
    eigenvectors:
  0.227  0.017  0.751  0.001  0.005
  0.060  0.608  0.004  0.000  0.328
  0.020  0.311  0.005  0.000  0.663
  0.066  0.008  0.015  0.910  0.001
  0.626  0.055  0.226  0.089  0.004
    occupations:
  0.461  0.001 -0.001 -0.015  0.044
  0.001  0.428  0.062 -0.000 -0.003
 -0.001  0.062  0.472  0.002 -0.003
 -0.015 -0.000  0.002  0.488  0.027
  0.044 -0.003 -0.003  0.027  0.415
atomic mag. moment =     2.710612
atom   16   Tr[ns(na)] (up, down, total) =   4.97526  2.22562  7.20089
   spin  1
    eigenvalues: 
  0.994  0.994  0.995  0.996  0.996
    eigenvectors:
  0.882  0.029  0.010  0.000  0.079
  0.008  0.009  0.502  0.467  0.014
  0.015  0.002  0.415  0.527  0.041
  0.008  0.859  0.026  0.000  0.107
  0.087  0.100  0.046  0.006  0.760
    occupations:
  0.994  0.000  0.000  0.000 -0.000
  0.000  0.995 -0.000 -0.000 -0.000
  0.000 -0.000  0.996  0.000 -0.000
  0.000 -0.000  0.000  0.994 -0.001
 -0.000 -0.000 -0.000 -0.001  0.996
   spin  2
    eigenvalues: 
  0.375  0.381  0.475  0.490  0.505
    eigenvectors:
  0.234  0.041  0.694  0.004  0.027
  0.139  0.536  0.005  0.002  0.318
  0.067  0.255  0.033  0.004  0.641
  0.066  0.017  0.008  0.900  0.008
  0.494  0.151  0.260  0.090  0.006
    occupations:
  0.449  0.007  0.001 -0.016  0.042
  0.007  0.420  0.058 -0.000  0.002
  0.001  0.058  0.463 -0.002  0.002
 -0.016 -0.000 -0.002  0.480  0.027
  0.042  0.002  0.002  0.027  0.413
atomic mag. moment =     2.749637
atom   17   Tr[ns(na)] (up, down, total) =   4.96654  1.62139  6.58793
   spin  1
    eigenvalues: 
  0.985  0.995  0.995  0.996  0.997
    eigenvectors:
  0.614  0.063  0.153  0.018  0.153
  0.020  0.367  0.018  0.146  0.449
  0.332  0.147  0.094  0.234  0.193
  0.029  0.275  0.106  0.587  0.004
  0.005  0.148  0.630  0.016  0.201
    occupations:
  0.989 -0.002  0.005  0.001  0.000
 -0.002  0.995  0.000 -0.000  0.001
  0.005  0.000  0.992 -0.002 -0.001
  0.001 -0.000 -0.002  0.995 -0.000
  0.000  0.001 -0.001 -0.000  0.995
   spin  2
    eigenvalues: 
  0.228  0.265  0.351  0.357  0.420
    eigenvectors:
  0.160  0.002  0.245  0.026  0.567
  0.033  0.793  0.128  0.032  0.016
  0.745  0.032  0.057  0.051  0.115
  0.037  0.111  0.048  0.744  0.060
  0.025  0.063  0.523  0.147  0.242
    occupations:
  0.371  0.006 -0.059 -0.004  0.034
  0.006  0.280  0.009  0.024 -0.027
 -0.059  0.009  0.265  0.032  0.002
 -0.004  0.024  0.032  0.345 -0.003
  0.034 -0.027  0.002 -0.003  0.360
atomic mag. moment =     3.345144
atom   18   Tr[ns(na)] (up, down, total) =   4.96647  1.62092  6.58739
   spin  1
    eigenvalues: 
  0.985  0.994  0.995  0.996  0.997
    eigenvectors:
  0.616  0.059  0.158  0.018  0.149
  0.022  0.350  0.016  0.151  0.460
  0.328  0.141  0.103  0.247  0.182
  0.028  0.297  0.095  0.576  0.003
  0.005  0.153  0.627  0.008  0.207
    occupations:
  0.989  0.002 -0.005  0.001  0.000
  0.002  0.995  0.001  0.000 -0.001
 -0.005  0.001  0.992  0.001  0.001
  0.001  0.000  0.001  0.995 -0.000
  0.000 -0.001  0.001 -0.000  0.995
   spin  2
    eigenvalues: 
  0.227  0.264  0.352  0.357  0.420
    eigenvectors:
  0.160  0.002  0.242  0.037  0.559
  0.034  0.791  0.123  0.036  0.016
  0.741  0.033  0.062  0.048  0.117
  0.039  0.113  0.035  0.745  0.067
  0.026  0.061  0.538  0.134  0.241
    occupations:
  0.370 -0.007  0.059 -0.004  0.034
 -0.007  0.280  0.009 -0.025  0.027
  0.059  0.009  0.265 -0.034 -0.002
 -0.004 -0.025 -0.034  0.346 -0.004
  0.034  0.027 -0.002 -0.004  0.360
atomic mag. moment =     3.345541
atom   19   Tr[ns(na)] (up, down, total) =   4.97609  1.37260  6.34869
   spin  1
    eigenvalues: 
  0.993  0.995  0.996  0.996  0.997
    eigenvectors:
  0.942  0.000  0.018  0.029  0.010
  0.011  0.170  0.042  0.005  0.772
  0.007  0.439  0.264  0.121  0.170
  0.000  0.140  0.607  0.251  0.002
  0.040  0.252  0.070  0.594  0.045
    occupations:
  0.993  0.000  0.000  0.000 -0.001
  0.000  0.996 -0.001  0.000 -0.000
  0.000 -0.001  0.996  0.000 -0.000
  0.000  0.000  0.000  0.996  0.000
 -0.001 -0.000 -0.000  0.000  0.996
   spin  2
    eigenvalues: 
  0.219  0.226  0.259  0.313  0.356
    eigenvectors:
  0.010  0.003  0.906  0.000  0.081
  0.038  0.948  0.004  0.000  0.011
  0.949  0.036  0.012  0.003  0.000
  0.002  0.005  0.028  0.656  0.310
  0.001  0.009  0.050  0.342  0.599
    occupations:
  0.266  0.002 -0.005 -0.016  0.021
  0.002  0.228  0.001 -0.007  0.011
 -0.005  0.001  0.220 -0.004 -0.003
 -0.016 -0.007 -0.004  0.324 -0.016
  0.021  0.011 -0.003 -0.016  0.335
atomic mag. moment =     3.603488
atom   20   Tr[ns(na)] (up, down, total) =   4.97608  1.37512  6.35120
   spin  1
    eigenvalues: 
  0.993  0.995  0.996  0.996  0.997
    eigenvectors:
  0.938  0.001  0.019  0.030  0.012
  0.012  0.162  0.051  0.006  0.769
  0.007  0.381  0.313  0.133  0.166
  0.001  0.179  0.569  0.249  0.002
  0.042  0.278  0.047  0.582  0.051
    occupations:
  0.993 -0.000 -0.000  0.000 -0.001
 -0.000  0.996 -0.001 -0.000  0.000
 -0.000 -0.001  0.996 -0.000  0.000
  0.000 -0.000 -0.000  0.995  0.000
 -0.001  0.000  0.000  0.000  0.995
   spin  2
    eigenvalues: 
  0.219  0.227  0.259  0.314  0.356
    eigenvectors:
  0.012  0.003  0.901  0.000  0.084
  0.029  0.957  0.004  0.000  0.010
  0.956  0.027  0.013  0.003  0.000
  0.002  0.005  0.030  0.658  0.305
  0.001  0.008  0.052  0.339  0.601
    occupations:
  0.267 -0.002  0.005 -0.016  0.021
 -0.002  0.228  0.001  0.007 -0.011
  0.005  0.001  0.220  0.004  0.004
 -0.016  0.007  0.004  0.324 -0.015
  0.021 -0.011  0.004 -0.015  0.335
atomic mag. moment =     3.600958
N of occupied +U levels = 137.3443342
 --- exit write_ns ---

     negative rho (up, down):  0.000E+00 0.224E-03
 --- in v_hubbard ---
Hubbard energy    0.0000
 -------

     total cpu time spent up to now is      126.4 secs

     total energy              =   -6648.81808183 Ry
     Harris-Foulkes estimate   =   -6638.35128049 Ry
     estimated scf accuracy    <      33.14736260 Ry

     total magnetization       =    66.01 Bohr mag/cell
     absolute magnetization    =    69.38 Bohr mag/cell

     iteration #  2     ecut=    95.00 Ry     beta=0.50
     Davidson diagonalization with overlap
     ethr =  1.00E-02,  avg # of iterations =  1.0
 --- enter write_ns ---
 LDA+U parameters:
U( 1)     =  0.00000000
alpha( 1) =  0.00000000
atom    1   Tr[ns(na)] (up, down, total) =   4.97552  1.92523  6.90074
   spin  1
    eigenvalues: 
  0.993  0.995  0.995  0.995  0.997
    eigenvectors:
  0.902  0.080  0.018  0.001  0.000
  0.000  0.070  0.260  0.000  0.670
  0.000  0.142  0.527  0.001  0.329
  0.009  0.110  0.019  0.862  0.000
  0.089  0.599  0.176  0.136  0.000
    occupations:
  0.993 -0.000  0.000  0.000 -0.000
 -0.000  0.996 -0.001  0.000 -0.000
  0.000 -0.001  0.996  0.000 -0.000
  0.000  0.000  0.000  0.995  0.000
 -0.000 -0.000 -0.000  0.000  0.995
   spin  2
    eigenvalues: 
  0.304  0.331  0.345  0.453  0.493
    eigenvectors:
  0.000  0.000  0.707  0.293  0.000
  0.666  0.334  0.000  0.000  0.000
  0.334  0.666  0.000  0.000  0.000
  0.000  0.000  0.032  0.081  0.887
  0.000  0.000  0.261  0.626  0.113
    occupations:
  0.376  0.000  0.000 -0.016  0.046
  0.000  0.313  0.013  0.000 -0.000
  0.000  0.013  0.322  0.000 -0.000
 -0.016  0.000  0.000  0.485  0.023
  0.046 -0.000 -0.000  0.023  0.429
atomic mag. moment =     3.050287
atom    2   Tr[ns(na)] (up, down, total) =   4.97548  1.92599  6.90147
   spin  1
    eigenvalues: 
  0.993  0.995  0.995  0.995  0.997
    eigenvectors:
  0.901  0.081  0.017  0.000  0.000
  0.000  0.067  0.260  0.000  0.672
  0.000  0.136  0.536  0.001  0.327
  0.009  0.107  0.016  0.867  0.000
  0.089  0.609  0.171  0.131  0.000
    occupations:
  0.993  0.000 -0.000  0.000 -0.001
  0.000  0.996 -0.001 -0.000  0.000
 -0.000 -0.001  0.996 -0.000  0.000
  0.000 -0.000 -0.000  0.995  0.000
 -0.001  0.000  0.000  0.000  0.995
   spin  2
    eigenvalues: 
  0.304  0.331  0.345  0.453  0.494
    eigenvectors:
  0.000  0.000  0.704  0.296  0.000
  0.669  0.331  0.000  0.000  0.000
  0.331  0.669  0.000  0.000  0.000
  0.000  0.000  0.033  0.078  0.889
  0.000  0.000  0.262  0.627  0.111
    occupations:
  0.377  0.000  0.000 -0.017  0.046
  0.000  0.313  0.012 -0.000  0.000
  0.000  0.012  0.322 -0.000  0.000
 -0.017 -0.000 -0.000  0.485  0.023
  0.046  0.000  0.000  0.023  0.429
atomic mag. moment =     3.049495
atom    3   Tr[ns(na)] (up, down, total) =   4.97521  1.92212  6.89733
   spin  1
    eigenvalues: 
  0.993  0.995  0.995  0.995  0.997
    eigenvectors:
  0.886  0.109  0.004  0.001  0.000
  0.000  0.014  0.312  0.017  0.657
  0.000  0.039  0.597  0.022  0.342
  0.014  0.076  0.016  0.894  0.000
  0.100  0.763  0.071  0.067  0.000
    occupations:
  0.993  0.000 -0.000  0.000 -0.001
  0.000  0.996 -0.001  0.000  0.000
 -0.000 -0.001  0.996 -0.000  0.000
  0.000  0.000 -0.000  0.995  0.000
 -0.001  0.000  0.000  0.000  0.995
   spin  2
    eigenvalues: 
  0.303  0.330  0.344  0.452  0.492
    eigenvectors:
  0.000  0.000  0.701  0.299  0.000
  0.670  0.330  0.000  0.000  0.000
  0.330  0.670  0.000  0.000  0.000
  0.000  0.000  0.033  0.074  0.893
  0.000  0.000  0.265  0.628  0.107
    occupations:
  0.376  0.000  0.000 -0.017  0.047
  0.000  0.312  0.013 -0.000 -0.000
  0.000  0.013  0.321 -0.000  0.000
 -0.017 -0.000 -0.000  0.484  0.023
  0.047 -0.000  0.000  0.023  0.428
atomic mag. moment =     3.053090
atom    4   Tr[ns(na)] (up, down, total) =   4.97525  1.92473  6.89998
   spin  1
    eigenvalues: 
  0.993  0.995  0.995  0.995  0.997
    eigenvectors:
  0.891  0.106  0.002  0.001  0.000
  0.000  0.008  0.323  0.007  0.662
  0.000  0.025  0.630  0.007  0.337
  0.012  0.056  0.005  0.927  0.000
  0.097  0.806  0.040  0.058  0.000
    occupations:
  0.993 -0.000  0.000  0.000 -0.001
 -0.000  0.996 -0.001 -0.000 -0.000
  0.000 -0.001  0.996  0.000 -0.000
  0.000 -0.000  0.000  0.995  0.000
 -0.001 -0.000 -0.000  0.000  0.995
   spin  2
    eigenvalues: 
  0.304  0.330  0.344  0.453  0.493
    eigenvectors:
  0.000  0.000  0.701  0.298  0.000
  0.671  0.329  0.000  0.000  0.000
  0.329  0.671  0.000  0.000  0.000
  0.000  0.000  0.033  0.079  0.888
  0.000  0.000  0.265  0.623  0.112
    occupations:
  0.377 -0.000 -0.000 -0.016  0.047
 -0.000  0.313  0.012 -0.000  0.000
 -0.000  0.012  0.322  0.000  0.000
 -0.016 -0.000  0.000  0.485  0.023
  0.047  0.000  0.000  0.023  0.429
atomic mag. moment =     3.050524
atom    5   Tr[ns(na)] (up, down, total) =   4.95291  2.05506  7.00798
   spin  1
    eigenvalues: 
  0.988  0.990  0.991  0.991  0.992
    eigenvectors:
  0.987  0.000  0.005  0.007  0.000
  0.001  0.002  0.300  0.001  0.695
  0.002  0.007  0.663  0.027  0.301
  0.001  0.874  0.019  0.105  0.001
  0.009  0.117  0.012  0.859  0.003
    occupations:
  0.989  0.000  0.000  0.000 -0.000
  0.000  0.992 -0.001 -0.000  0.000
  0.000 -0.001  0.991  0.000  0.000
  0.000 -0.000  0.000  0.990 -0.000
 -0.000  0.000  0.000 -0.000  0.991
   spin  2
    eigenvalues: 
  0.356  0.356  0.437  0.438  0.469
    eigenvectors:
  0.055  0.264  0.000  0.681  0.000
  0.554  0.113  0.000  0.000  0.333
  0.276  0.056  0.000  0.000  0.667
  0.013  0.063  0.880  0.044  0.000
  0.102  0.503  0.120  0.276  0.000
    occupations:
  0.412 -0.000 -0.000 -0.013  0.036
 -0.000  0.393  0.053  0.000 -0.000
 -0.000  0.053  0.431  0.000 -0.000
 -0.013  0.000  0.000  0.431  0.017
  0.036 -0.000 -0.000  0.017  0.388
atomic mag. moment =     2.897851
atom    6   Tr[ns(na)] (up, down, total) =   4.95293  2.05645  7.00938
   spin  1
    eigenvalues: 
  0.989  0.990  0.991  0.991  0.992
    eigenvectors:
  0.992  0.000  0.001  0.007  0.000
  0.001  0.008  0.385  0.008  0.598
  0.001  0.003  0.597  0.001  0.398
  0.000  0.942  0.014  0.042  0.002
  0.006  0.046  0.004  0.943  0.001
    occupations:
  0.989 -0.000 -0.000  0.000 -0.000
 -0.000  0.992 -0.001  0.000 -0.000
 -0.000 -0.001  0.991 -0.000  0.000
  0.000  0.000 -0.000  0.990 -0.000
 -0.000 -0.000  0.000 -0.000  0.991
   spin  2
    eigenvalues: 
  0.356  0.356  0.437  0.438  0.469
    eigenvectors:
  0.003  0.314  0.008  0.674  0.000
  0.659  0.007  0.000  0.000  0.334
  0.330  0.003  0.000  0.000  0.666
  0.001  0.075  0.839  0.085  0.000
  0.007  0.601  0.152  0.241  0.000
    occupations:
  0.412  0.001  0.000 -0.013  0.036
  0.001  0.394  0.054 -0.000  0.000
  0.000  0.054  0.431 -0.000  0.000
 -0.013 -0.000 -0.000  0.431  0.017
  0.036  0.000  0.000  0.017  0.388
atomic mag. moment =     2.896487
atom    7   Tr[ns(na)] (up, down, total) =   4.95300  2.05797  7.01097
   spin  1
    eigenvalues: 
  0.989  0.990  0.991  0.991  0.992
    eigenvectors:
  0.991  0.000  0.003  0.005  0.000
  0.001  0.004  0.397  0.000  0.597
  0.002  0.001  0.595  0.002  0.400
  0.000  0.951  0.003  0.044  0.001
  0.005  0.044  0.001  0.949  0.001
    occupations:
  0.989  0.000  0.000  0.000 -0.000
  0.000  0.992 -0.001 -0.000  0.000
  0.000 -0.001  0.991  0.000 -0.000
  0.000 -0.000  0.000  0.990 -0.000
 -0.000  0.000 -0.000 -0.000  0.991
   spin  2
    eigenvalues: 
  0.356  0.356  0.438  0.438  0.469
    eigenvectors:
  0.013  0.302  0.000  0.684  0.000
  0.636  0.029  0.000  0.000  0.334
  0.320  0.014  0.000  0.000  0.665
  0.003  0.073  0.890  0.034  0.000
  0.027  0.581  0.110  0.282  0.000
    occupations:
  0.413 -0.000 -0.000 -0.013  0.036
 -0.000  0.394  0.053  0.000 -0.000
 -0.000  0.053  0.432  0.000 -0.000
 -0.013  0.000  0.000  0.432  0.017
  0.036 -0.000 -0.000  0.017  0.388
atomic mag. moment =     2.895037
atom    8   Tr[ns(na)] (up, down, total) =   4.95289  2.05539  7.00828
   spin  1
    eigenvalues: 
  0.988  0.990  0.991  0.991  0.992
    eigenvectors:
  0.986  0.001  0.006  0.007  0.000
  0.002  0.001  0.296  0.001  0.700
  0.003  0.005  0.672  0.023  0.296
  0.000  0.879  0.015  0.104  0.001
  0.009  0.113  0.010  0.864  0.003
    occupations:
  0.989 -0.000 -0.000  0.000 -0.000
 -0.000  0.992 -0.001  0.000 -0.000
 -0.000 -0.001  0.991 -0.000 -0.000
  0.000  0.000 -0.000  0.990 -0.000
 -0.000 -0.000 -0.000 -0.000  0.991
   spin  2
    eigenvalues: 
  0.356  0.356  0.437  0.437  0.469
    eigenvectors:
  0.084  0.234  0.055  0.628  0.000
  0.494  0.173  0.000  0.000  0.332
  0.246  0.086  0.000  0.000  0.668
  0.020  0.056  0.916  0.008  0.000
  0.156  0.450  0.029  0.365  0.000
    occupations:
  0.412  0.000 -0.000 -0.012  0.036
  0.000  0.393  0.053 -0.000 -0.000
 -0.000  0.053  0.431 -0.000  0.000
 -0.012 -0.000 -0.000  0.431  0.017
  0.036 -0.000  0.000  0.017  0.388
atomic mag. moment =     2.897499
atom    9   Tr[ns(na)] (up, down, total) =   4.95761  2.07889  7.03650
   spin  1
    eigenvalues: 
  0.989  0.992  0.992  0.992  0.993
    eigenvectors:
  0.001  0.674  0.001  0.306  0.018
  0.206  0.032  0.655  0.097  0.010
  0.792  0.006  0.162  0.038  0.001
  0.000  0.051  0.115  0.252  0.583
  0.001  0.236  0.067  0.308  0.388
    occupations:
  0.992  0.000 -0.000  0.000 -0.000
  0.000  0.991 -0.001  0.000  0.000
 -0.000 -0.001  0.990 -0.000  0.000
  0.000  0.000 -0.000  0.992  0.000
 -0.000  0.000  0.000  0.000  0.992
   spin  2
    eigenvalues: 
  0.368  0.373  0.441  0.444  0.452
    eigenvectors:
  0.000  0.232  0.001  0.003  0.764
  0.669  0.001  0.307  0.022  0.001
  0.330  0.000  0.625  0.043  0.002
  0.000  0.086  0.055  0.846  0.013
  0.001  0.681  0.011  0.087  0.220
    occupations:
  0.434  0.000  0.001 -0.011  0.032
  0.000  0.392  0.035  0.000  0.000
  0.001  0.035  0.417  0.001  0.000
 -0.011  0.000  0.001  0.438  0.017
  0.032  0.000  0.000  0.017  0.397
atomic mag. moment =     2.878721
atom   10   Tr[ns(na)] (up, down, total) =   4.95742  2.07499  7.03242
   spin  1
    eigenvalues: 
  0.989  0.992  0.992  0.992  0.993
    eigenvectors:
  0.001  0.699  0.003  0.282  0.015
  0.208  0.037  0.698  0.046  0.011
  0.791  0.007  0.180  0.021  0.001
  0.000  0.038  0.078  0.268  0.616
  0.001  0.220  0.041  0.383  0.356
    occupations:
  0.992 -0.000  0.000  0.000 -0.000
 -0.000  0.991 -0.001 -0.000 -0.000
  0.000 -0.001  0.990  0.000 -0.000
  0.000 -0.000  0.000  0.992  0.000
 -0.000 -0.000 -0.000  0.000  0.992
   spin  2
    eigenvalues: 
  0.367  0.372  0.440  0.444  0.452
    eigenvectors:
  0.000  0.232  0.001  0.002  0.765
  0.669  0.000  0.324  0.006  0.000
  0.331  0.000  0.656  0.012  0.001
  0.000  0.085  0.015  0.886  0.013
  0.000  0.682  0.003  0.093  0.221
    occupations:
  0.433 -0.000 -0.000 -0.011  0.032
 -0.000  0.391  0.034 -0.000 -0.000
 -0.000  0.034  0.416 -0.000 -0.000
 -0.011 -0.000 -0.000  0.438  0.017
  0.032 -0.000 -0.000  0.017  0.397
atomic mag. moment =     2.882431
atom   11   Tr[ns(na)] (up, down, total) =   4.95485  2.07262  7.02747
   spin  1
    eigenvalues: 
  0.988  0.991  0.992  0.992  0.992
    eigenvectors:
  0.009  0.500  0.125  0.360  0.007
  0.395  0.027  0.470  0.103  0.005
  0.595  0.000  0.352  0.049  0.004
  0.000  0.020  0.008  0.008  0.965
  0.001  0.454  0.044  0.481  0.019
    occupations:
  0.991 -0.000 -0.000  0.000 -0.000
 -0.000  0.990 -0.002  0.000  0.000
 -0.000 -0.002  0.990 -0.000 -0.000
  0.000  0.000 -0.000  0.992  0.000
 -0.000  0.000 -0.000  0.000  0.991
   spin  2
    eigenvalues: 
  0.368  0.373  0.438  0.444  0.449
    eigenvectors:
  0.001  0.241  0.014  0.001  0.743
  0.665  0.003  0.326  0.000  0.007
  0.331  0.001  0.657  0.000  0.011
  0.000  0.084  0.000  0.877  0.038
  0.002  0.672  0.003  0.122  0.201
    occupations:
  0.431 -0.001 -0.001 -0.011  0.031
 -0.001  0.391  0.033  0.000 -0.001
 -0.001  0.033  0.415  0.000 -0.001
 -0.011  0.000  0.000  0.438  0.016
  0.031 -0.001 -0.001  0.016  0.397
atomic mag. moment =     2.882229
atom   12   Tr[ns(na)] (up, down, total) =   4.95509  2.07483  7.02992
   spin  1
    eigenvalues: 
  0.988  0.991  0.992  0.992  0.992
    eigenvectors:
  0.008  0.510  0.111  0.364  0.007
  0.395  0.026  0.486  0.088  0.005
  0.596  0.000  0.359  0.041  0.004
  0.000  0.013  0.009  0.002  0.976
  0.001  0.451  0.034  0.505  0.009
    occupations:
  0.991  0.000  0.000  0.000 -0.000
  0.000  0.990 -0.002 -0.000 -0.000
  0.000 -0.002  0.990  0.000  0.000
  0.000 -0.000  0.000  0.992  0.000
 -0.000 -0.000  0.000  0.000  0.991
   spin  2
    eigenvalues: 
  0.369  0.374  0.438  0.445  0.450
    eigenvectors:
  0.001  0.241  0.011  0.001  0.747
  0.668  0.001  0.325  0.000  0.005
  0.330  0.000  0.660  0.000  0.009
  0.000  0.084  0.000  0.877  0.039
  0.001  0.673  0.004  0.122  0.201
    occupations:
  0.431  0.001  0.001 -0.011  0.031
  0.001  0.392  0.033  0.000  0.001
  0.001  0.033  0.415 -0.000  0.001
 -0.011  0.000 -0.000  0.439  0.016
  0.031  0.001  0.001  0.016  0.398
atomic mag. moment =     2.880253
atom   13   Tr[ns(na)] (up, down, total) =   4.95551  2.06218  7.01769
   spin  1
    eigenvalues: 
  0.990  0.991  0.991  0.991  0.993
    eigenvectors:
  0.717  0.053  0.017  0.197  0.016
  0.010  0.105  0.312  0.147  0.426
  0.057  0.011  0.413  0.014  0.504
  0.004  0.419  0.236  0.287  0.053
  0.211  0.412  0.022  0.354  0.001
    occupations:
  0.990 -0.000 -0.000  0.000 -0.001
 -0.000  0.992 -0.001  0.000  0.000
 -0.000 -0.001  0.992 -0.000 -0.000
  0.000  0.000 -0.000  0.991 -0.000
 -0.001  0.000 -0.000 -0.000  0.991
   spin  2
    eigenvalues: 
  0.358  0.361  0.434  0.438  0.472
    eigenvectors:
  0.310  0.051  0.412  0.208  0.020
  0.124  0.559  0.001  0.005  0.311
  0.056  0.260  0.012  0.017  0.655
  0.063  0.014  0.147  0.769  0.008
  0.448  0.117  0.428  0.002  0.006
    occupations:
  0.408 -0.006 -0.003 -0.015  0.034
 -0.006  0.396  0.052  0.001 -0.002
 -0.003  0.052  0.436  0.002 -0.002
 -0.015  0.001  0.002  0.431  0.015
  0.034 -0.002 -0.002  0.015  0.391
atomic mag. moment =     2.893326
atom   14   Tr[ns(na)] (up, down, total) =   4.95176  2.07117  7.02293
   spin  1
    eigenvalues: 
  0.988  0.990  0.991  0.991  0.992
    eigenvectors:
  0.639  0.273  0.037  0.006  0.044
  0.109  0.035  0.032  0.026  0.798
  0.166  0.272  0.124  0.351  0.087
  0.048  0.420  0.155  0.341  0.037
  0.038  0.000  0.652  0.276  0.034
    occupations:
  0.989  0.001  0.001  0.000 -0.000
  0.001  0.992 -0.001 -0.001 -0.000
  0.001 -0.001  0.990 -0.000  0.000
  0.000 -0.001 -0.000  0.990  0.000
 -0.000 -0.000  0.000  0.000  0.991
   spin  2
    eigenvalues: 
  0.356  0.360  0.438  0.441  0.476
    eigenvectors:
  0.212  0.079  0.159  0.529  0.020
  0.201  0.475  0.001  0.013  0.311
  0.077  0.249  0.004  0.020  0.651
  0.043  0.022  0.580  0.351  0.004
  0.468  0.176  0.256  0.087  0.013
    occupations:
  0.417  0.001  0.004 -0.013  0.036
  0.001  0.397  0.054 -0.001  0.005
  0.004  0.054  0.437 -0.003  0.004
 -0.013 -0.001 -0.003  0.434  0.015
  0.036  0.005  0.004  0.015  0.387
atomic mag. moment =     2.880588
atom   15   Tr[ns(na)] (up, down, total) =   4.95178  2.07137  7.02315
   spin  1
    eigenvalues: 
  0.988  0.990  0.991  0.991  0.992
    eigenvectors:
  0.647  0.270  0.041  0.002  0.040
  0.106  0.047  0.031  0.023  0.794
  0.159  0.287  0.144  0.322  0.088
  0.050  0.396  0.152  0.359  0.044
  0.038  0.001  0.633  0.294  0.034
    occupations:
  0.989 -0.001 -0.001  0.000 -0.000
 -0.001  0.992 -0.001  0.001  0.000
 -0.001 -0.001  0.990  0.000 -0.000
  0.000  0.001  0.000  0.990  0.000
 -0.000  0.000 -0.000  0.000  0.991
   spin  2
    eigenvalues: 
  0.356  0.361  0.438  0.441  0.476
    eigenvectors:
  0.213  0.080  0.139  0.548  0.020
  0.203  0.472  0.000  0.013  0.312
  0.077  0.249  0.002  0.022  0.649
  0.044  0.021  0.611  0.319  0.006
  0.464  0.178  0.247  0.098  0.013
    occupations:
  0.417 -0.001 -0.004 -0.013  0.036
 -0.001  0.397  0.054  0.001 -0.005
 -0.004  0.054  0.437  0.003 -0.004
 -0.013  0.001  0.003  0.434  0.015
  0.036 -0.005 -0.004  0.015  0.387
atomic mag. moment =     2.880410
atom   16   Tr[ns(na)] (up, down, total) =   4.95553  2.06304  7.01857
   spin  1
    eigenvalues: 
  0.990  0.991  0.991  0.991  0.993
    eigenvectors:
  0.725  0.057  0.010  0.192  0.015
  0.008  0.084  0.344  0.142  0.423
  0.052  0.003  0.424  0.015  0.507
  0.004  0.476  0.185  0.280  0.055
  0.211  0.380  0.037  0.371  0.001
    occupations:
  0.990  0.000  0.000  0.000 -0.001
  0.000  0.992 -0.001 -0.000 -0.000
  0.000 -0.001  0.992  0.000  0.000
  0.000 -0.000  0.000  0.991 -0.000
 -0.001 -0.000  0.000 -0.000  0.991
   spin  2
    eigenvalues: 
  0.358  0.361  0.434  0.438  0.473
    eigenvectors:
  0.310  0.051  0.430  0.189  0.021
  0.122  0.560  0.001  0.004  0.312
  0.055  0.261  0.014  0.016  0.654
  0.062  0.014  0.127  0.790  0.007
  0.450  0.115  0.428  0.000  0.006
    occupations:
  0.408  0.006  0.003 -0.014  0.034
  0.006  0.396  0.052 -0.001  0.002
  0.003  0.052  0.436 -0.002  0.002
 -0.014 -0.001 -0.002  0.431  0.015
  0.034  0.002  0.002  0.015  0.391
atomic mag. moment =     2.892486
atom   17   Tr[ns(na)] (up, down, total) =   4.95813  1.97072  6.92884
   spin  1
    eigenvalues: 
  0.981  0.993  0.994  0.995  0.996
    eigenvectors:
  0.639  0.012  0.121  0.050  0.179
  0.019  0.235  0.009  0.350  0.386
  0.300  0.035  0.024  0.336  0.305
  0.036  0.308  0.461  0.181  0.014
  0.007  0.410  0.385  0.083  0.116
    occupations:
  0.986 -0.002  0.006  0.002  0.001
 -0.002  0.995  0.000 -0.000  0.001
  0.006  0.000  0.991 -0.002 -0.001
  0.002 -0.000 -0.002  0.993  0.000
  0.001  0.001 -0.001  0.000  0.994
   spin  2
    eigenvalues: 
  0.281  0.321  0.399  0.477  0.492
    eigenvectors:
  0.146  0.002  0.144  0.009  0.699
  0.099  0.830  0.065  0.005  0.001
  0.725  0.113  0.049  0.011  0.102
  0.002  0.032  0.097  0.824  0.045
  0.029  0.022  0.645  0.151  0.153
    occupations:
  0.447  0.009 -0.063 -0.007  0.040
  0.009  0.323  0.009  0.017 -0.016
 -0.063  0.009  0.315  0.023  0.005
 -0.007  0.017  0.023  0.465  0.021
  0.040 -0.016  0.005  0.021  0.420
atomic mag. moment =     2.987409
atom   18   Tr[ns(na)] (up, down, total) =   4.95815  1.97010  6.92825
   spin  1
    eigenvalues: 
  0.981  0.993  0.993  0.995  0.996
    eigenvectors:
  0.639  0.012  0.120  0.050  0.179
  0.021  0.231  0.010  0.348  0.389
  0.298  0.035  0.024  0.342  0.300
  0.035  0.321  0.451  0.179  0.014
  0.007  0.401  0.395  0.079  0.118
    occupations:
  0.986  0.002 -0.006  0.002  0.001
  0.002  0.995  0.001  0.000 -0.001
[...]
     0.3513   0.3300   0.2074   0.1072   0.0440   0.0421   0.0347   0.0334
     0.0178   0.0114   0.0092   0.0091   0.0077   0.0073   0.0045   0.0031
     0.0018   0.0017   0.0009   0.0007   0.0003   0.0001   0.0001   0.0001
     0.0000   0.0000   0.0000   0.0000   0.0000   0.0000   0.0000   0.0000
     0.0000   0.0000   0.0000   0.0000   0.0000   0.0000   0.0000   0.0000
     0.0000   0.0000   0.0000   0.0000   0.0000   0.0000   0.0000   0.0000
     0.0000   0.0000   0.0000   0.0000   0.0000

     the Fermi energy is     7.5996 ev

!    total energy              =   -6653.55848616 Ry
     Harris-Foulkes estimate   =   -6653.55848616 Ry
     estimated scf accuracy    <          1.0E-08 Ry

     total all-electron energy =    -51711.590325 Ry

     The total energy is the sum of the following terms:

     one-electron contribution =  -29344.40170639 Ry
     hartree contribution      =   14762.60329943 Ry
     xc contribution           =    -704.85770931 Ry
     ewald contribution        =   10200.12756365 Ry
     Hubbard energy            =       0.00000000 Ry
     one-center paw contrib.   =   -1567.16438860 Ry
     smearing contrib. (-TS)   =       0.13445505 Ry

     total magnetization       =    45.68 Bohr mag/cell
     absolute magnetization    =    47.97 Bohr mag/cell

     convergence has been achieved in  27 iterations

     Forces acting on atoms (Ry/au):


     negative rho (up, down):  0.877E-05 0.449E-03
     atom    1 type  1   force =     0.00005035   -0.00000820    0.00185372
     atom    2 type  1   force =    -0.00004888    0.00000691    0.00186028
     atom    3 type  1   force =     0.00002466   -0.00001676    0.00149986
     atom    4 type  1   force =    -0.00002062    0.00001748    0.00149479
     atom    5 type  1   force =    -0.00014735   -0.00049421    0.00155468
     atom    6 type  1   force =    -0.00009001    0.00012935    0.00226688
     atom    7 type  1   force =     0.00009210   -0.00014708    0.00226930
     atom    8 type  1   force =     0.00015170    0.00048747    0.00157482
     atom    9 type  1   force =     0.00016742   -0.00024196   -0.00328162
     atom   10 type  1   force =    -0.00018674    0.00035413   -0.00326854
     atom   11 type  1   force =     0.00071100    0.00004404   -0.00398638
     atom   12 type  1   force =    -0.00069625    0.00008380   -0.00400043
     atom   13 type  1   force =    -0.00002885   -0.00007596    0.00007938
     atom   14 type  1   force =     0.00005939   -0.00001088    0.00003361
     atom   15 type  1   force =    -0.00008379   -0.00001913   -0.00000223
     atom   16 type  1   force =     0.00005216    0.00001877    0.00000567
     atom   17 type  1   force =     0.00005071   -0.00003633    0.00007821
     atom   18 type  1   force =    -0.00001065   -0.00001066    0.00002325
     atom   19 type  1   force =     0.00003472   -0.00001594   -0.00000611
     atom   20 type  1   force =     0.00000272    0.00000396   -0.00001438
     atom   21 type  2   force =    -0.00001140   -0.00006788   -0.00005176
     atom   22 type  3   force =    -0.00004224   -0.00003456   -0.00000899
     atom   23 type  3   force =    -0.00003016    0.00003366    0.00002599
     The non-local contrib.  to forces
     atom    1 type  1   force =     0.00028625   -0.00035743   -0.19261382
     atom    2 type  1   force =    -0.00029114    0.00035273   -0.19261174
     atom    3 type  1   force =    -0.00035053    0.00042850   -0.19060924
     atom    4 type  1   force =     0.00035040   -0.00043187   -0.19061135
     atom    5 type  1   force =    -0.00114910    0.00064988   -0.02781487
     atom    6 type  1   force =    -0.00037660    0.00055232   -0.02694276
     atom    7 type  1   force =     0.00036785   -0.00057400   -0.02697340
     atom    8 type  1   force =     0.00114463   -0.00067820   -0.02783382
     atom    9 type  1   force =     0.00146130    0.00078551    0.00572182
     atom   10 type  1   force =    -0.00158321   -0.00079497    0.00567365
     atom   11 type  1   force =    -0.00159516    0.00222806    0.00114485
     atom   12 type  1   force =     0.00145508   -0.00227427    0.00119595
     atom   13 type  1   force =     0.00728323    0.01280715    0.01437566
     atom   14 type  1   force =    -0.01068056   -0.01429106    0.01823855
     atom   15 type  1   force =     0.01067653    0.01421322    0.01813253
     atom   16 type  1   force =    -0.00721391   -0.01275408    0.01438696
     atom   17 type  1   force =    -0.04568828    0.16293935    0.28904070
     atom   18 type  1   force =     0.04735378   -0.16235061    0.28931460
     atom   19 type  1   force =     0.05124410    0.04956954    0.21947822
     atom   20 type  1   force =    -0.05226928   -0.04997224    0.21946007
     atom   21 type  2   force =     0.00107879    0.00002795    0.23375724
     atom   22 type  3   force =    -0.03839883   -0.01190031   -0.03762711
     atom   23 type  3   force =     0.03818109    0.01190344   -0.03783672
     The ionic contribution  to forces
     atom    1 type  1   force =    -0.00014606   -0.00015460 -323.79243745
     atom    2 type  1   force =     0.00012608    0.00014885 -323.79208121
     atom    3 type  1   force =     0.00020175   -0.00031949 -323.79104135
     atom    4 type  1   force =    -0.00019048    0.00032482 -323.79070141
     atom    5 type  1   force =     0.00838916    0.00505231 -167.35263828
     atom    6 type  1   force =    -0.01123862   -0.00337946 -167.35070181
     atom    7 type  1   force =     0.01124603    0.00205014 -167.35074485
     atom    8 type  1   force =    -0.00837959   -0.00377881 -167.35217540
     atom    9 type  1   force =    -0.02742843    0.02282244   -8.83537426
     atom   10 type  1   force =     0.02664126   -0.01980164   -8.83294994
     atom   11 type  1   force =     0.02062179   -0.03811979   -8.51165483
     atom   12 type  1   force =    -0.01509798    0.04437862   -8.51512832
     atom   13 type  1   force =    -0.26161376   -0.00232233  151.61746976
     atom   14 type  1   force =    -0.26897228    0.23510908  150.87296144
     atom   15 type  1   force =     0.26779554   -0.23437406  150.88530969
     atom   16 type  1   force =     0.26237650   -0.00016132  151.63913392
     atom   17 type  1   force =     0.40866967   -1.12465737  308.06157300
     atom   18 type  1   force =    -0.43668220    1.11445575  308.09864990
     atom   19 type  1   force =    -0.05463406    0.30662022  309.19680736
     atom   20 type  1   force =     0.06800963   -0.30492302  309.15566982
     atom   21 type  2   force =     0.00438929    0.00129065  123.86695657
     atom   22 type  3   force =     1.19437372    0.38567459   17.94442893
     atom   23 type  3   force =    -1.18845698   -0.38593557   17.92866871
     The local contribution  to forces
     atom    1 type  1   force =    -0.00008090    0.00050773  323.99551446
     atom    2 type  1   force =     0.00010668   -0.00049777  323.99517494
     atom    3 type  1   force =     0.00014537   -0.00013075  323.99170224
     atom    4 type  1   force =    -0.00015532    0.00012975  323.99134331
     atom    5 type  1   force =    -0.00742454   -0.00628241  167.38335883
     atom    6 type  1   force =     0.01154191    0.00292674  167.38132843
     atom    7 type  1   force =    -0.01153754   -0.00158599  167.38139710
     atom    8 type  1   force =     0.00742126    0.00502366  167.38292181
     atom    9 type  1   force =     0.02621624   -0.02380503    8.82648197
     atom   10 type  1   force =    -0.02533075    0.02089781    8.82410526
     atom   11 type  1   force =    -0.01834621    0.03585131    8.50664566
     atom   12 type  1   force =     0.01297453   -0.04194739    8.51007071
     atom   13 type  1   force =     0.25438052   -0.01032249 -151.63369893
     atom   14 type  1   force =     0.27988572   -0.22106991 -150.89192554
     atom   15 type  1   force =    -0.27872255    0.22038762 -150.90420407
     atom   16 type  1   force =    -0.25518959    0.01269077 -151.65542774
     atom   17 type  1   force =    -0.36214167    0.96061193 -308.35367253
     atom   18 type  1   force =     0.38854336   -0.95104775 -308.39108780
     atom   19 type  1   force =     0.00298441   -0.35614525 -309.42353284
     atom   20 type  1   force =    -0.01529390    0.35483403 -309.38236705
     atom   21 type  2   force =    -0.00543447   -0.00138565 -124.09210581
     atom   22 type  3   force =    -1.15601506   -0.37380860  -17.90680727
     atom   23 type  3   force =     1.15024361    0.37406510  -17.89080246
     The core correction contribution to forces
     atom    1 type  1   force =    -0.00001195   -0.00000145   -0.00871702
     atom    2 type  1   force =     0.00001240    0.00000040   -0.00871821
     atom    3 type  1   force =     0.00002947    0.00000333   -0.00864483
     atom    4 type  1   force =    -0.00002727   -0.00000394   -0.00864074
     atom    5 type  1   force =     0.00003599    0.00008369   -0.00159967
     atom    6 type  1   force =    -0.00001590    0.00003300   -0.00166486
     atom    7 type  1   force =     0.00001505   -0.00003527   -0.00166765
     atom    8 type  1   force =    -0.00003412   -0.00008343   -0.00159796
     atom    9 type  1   force =    -0.00008329   -0.00004445   -0.00011802
     atom   10 type  1   force =     0.00008754    0.00005236   -0.00011409
     atom   11 type  1   force =     0.00003252    0.00008446   -0.00013382
     atom   12 type  1   force =    -0.00003045   -0.00007415   -0.00014019
     atom   13 type  1   force =    -0.00005787   -0.00024463    0.00217125
     atom   14 type  1   force =    -0.00017821    0.00023553    0.00101280
     atom   15 type  1   force =     0.00017229   -0.00023387    0.00102415
     atom   16 type  1   force =     0.00005710    0.00024178    0.00216223
     atom   17 type  1   force =    -0.00077640    0.00105031    0.00331149
     atom   18 type  1   force =     0.00076298   -0.00104838    0.00331494
     atom   19 type  1   force =     0.00040919   -0.00008248    0.00732275
     atom   20 type  1   force =    -0.00041169    0.00008765    0.00730712
     atom   21 type  2   force =    -0.00004435   -0.00000271   -0.00862617
     atom   22 type  3   force =     0.00000000    0.00000000    0.00000000
     atom   23 type  3   force =     0.00000000    0.00000000    0.00000000
     The Hubbard contrib.    to forces
     atom    1 type  1   force =     0.00000000    0.00000000   -0.00000000
     atom    2 type  1   force =    -0.00000000   -0.00000000   -0.00000000
     atom    3 type  1   force =     0.00000000   -0.00000000   -0.00000000
     atom    4 type  1   force =    -0.00000000    0.00000000   -0.00000000
     atom    5 type  1   force =    -0.00000000   -0.00000000    0.00000000
     atom    6 type  1   force =     0.00000000    0.00000000    0.00000000
     atom    7 type  1   force =    -0.00000000   -0.00000000    0.00000000
     atom    8 type  1   force =     0.00000000    0.00000000    0.00000000
     atom    9 type  1   force =    -0.00000000    0.00000000    0.00000000
     atom   10 type  1   force =    -0.00000000   -0.00000000    0.00000000
     atom   11 type  1   force =    -0.00000000   -0.00000000    0.00000000
     atom   12 type  1   force =     0.00000000    0.00000000    0.00000000
     atom   13 type  1   force =     0.00000000    0.00000000   -0.00000000
     atom   14 type  1   force =     0.00000000    0.00000000    0.00000000
     atom   15 type  1   force =    -0.00000000   -0.00000000    0.00000000
     atom   16 type  1   force =    -0.00000000   -0.00000000   -0.00000000
     atom   17 type  1   force =     0.00000000    0.00000000    0.00000000
     atom   18 type  1   force =    -0.00000000   -0.00000000    0.00000000
     atom   19 type  1   force =     0.00000000    0.00000000    0.00000000
     atom   20 type  1   force =    -0.00000000   -0.00000000    0.00000000
     atom   21 type  2   force =     0.00000000    0.00000000    0.00000000
     atom   22 type  3   force =     0.00000000    0.00000000    0.00000000
     atom   23 type  3   force =    -0.00000000   -0.00000000    0.00000000
     The SCF correction term to forces
     atom    1 type  1   force =     0.00000000    0.00000000    0.00000000
     atom    2 type  1   force =     0.00000000    0.00000000    0.00000000
     atom    3 type  1   force =     0.00000000    0.00000000    0.00000000
     atom    4 type  1   force =     0.00000000    0.00000000    0.00000000
     atom    5 type  1   force =     0.00000000    0.00000000    0.00000000
     atom    6 type  1   force =     0.00000000    0.00000000    0.00000000
     atom    7 type  1   force =     0.00000000    0.00000000    0.00000000
     atom    8 type  1   force =     0.00000000    0.00000000    0.00000000
     atom    9 type  1   force =     0.00000000    0.00000000    0.00000000
     atom   10 type  1   force =     0.00000000    0.00000000    0.00000000
     atom   11 type  1   force =     0.00000000    0.00000000    0.00000000
     atom   12 type  1   force =     0.00000000    0.00000000    0.00000000
     atom   13 type  1   force =    -0.00002102    0.00000616   -0.00023642
     atom   14 type  1   force =     0.00000467    0.00000531   -0.00025171
     atom   15 type  1   force =    -0.00000566   -0.00001221   -0.00026259
     atom   16 type  1   force =     0.00002201    0.00000145   -0.00024776
     atom   17 type  1   force =    -0.00001265    0.00001928   -0.00017253
     atom   18 type  1   force =     0.00001139   -0.00001984   -0.00016646
     atom   19 type  1   force =     0.00003102    0.00002186   -0.00007965
     atom   20 type  1   force =    -0.00003210   -0.00002263   -0.00008242
     atom   21 type  2   force =    -0.00000070    0.00000171   -0.00003166
     atom   22 type  3   force =    -0.00000212   -0.00000041   -0.00000161
     atom   23 type  3   force =     0.00000207    0.00000053   -0.00000160

     Total force =     0.000232     Total SCF correction =     0.000571
     SCF correction compared to forces is large: reduce conv_thr to get better values


     entering subroutine stress ...


     negative rho (up, down):  0.877E-05 0.449E-03
          total   stress  (Ry/bohr**3)                   (kbar)     P=  -10.11
  -0.00007468  -0.00003763  -0.00000017        -10.99     -5.54     -0.03
  -0.00003763  -0.00010362  -0.00000047         -5.54    -15.24     -0.07
  -0.00000017  -0.00000047  -0.00002778         -0.03     -0.07     -4.09

     kinetic stress (kbar)  40174.55    -12.39     -0.05
                              -12.39  40205.13     -0.14
                               -0.05     -0.14  39979.49

     local   stress (kbar)**********    930.39      0.27
                              930.39**********      4.63
                                0.27      4.631303234.53

     nonloc. stress (kbar) -30889.05     10.65      0.06
                               10.65 -30874.12      0.13
                                0.06      0.13 -30732.85

     hartree stress (kbar) 650158.78   -348.75     -0.23
                             -348.75 650043.25     -1.76
                               -0.23     -1.76-608446.10

     exc-cor stress (kbar)  -1246.87     -0.48      0.00
                               -0.48  -1247.66     -0.00
                                0.00     -0.00  -1254.15

     corecor stress (kbar)  -8297.00      0.06     -0.00
                                0.06  -8297.88     -0.00
                               -0.00     -0.00  -8296.38

     ewald   stress (kbar) 586342.10   -585.01     -0.07
                             -585.01 586110.92     -2.92
                               -0.07     -2.92-694488.63

     hubbard stress (kbar)     -0.00      0.00      0.00
                                0.00     -0.00      0.00
                                0.00      0.00     -0.00

     london  stress (kbar)      0.00      0.00      0.00
                                0.00      0.00      0.00
                                0.00      0.00      0.00

     dft-nl  stress (kbar)      0.00      0.00      0.00
                                0.00      0.00      0.00
                                0.00      0.00      0.00



     Writing output data file Fe_110_2x2_H2S_SB.save
 
     init_run     :     42.21s CPU     44.85s WALL (       1 calls)
     electrons    :   1638.51s CPU   1822.61s WALL (       1 calls)
     forces       :     62.64s CPU     63.60s WALL (       1 calls)
     stress       :    305.23s CPU    313.28s WALL (       1 calls)

     Called by init_run:
     wfcinit      :     19.75s CPU     22.12s WALL (       1 calls)
     potinit      :      2.45s CPU      2.49s WALL (       1 calls)

     Called by electrons:
     c_bands      :    827.06s CPU    872.45s WALL (      27 calls)
     sum_band     :    426.96s CPU    444.66s WALL (      27 calls)
     v_of_rho     :     17.37s CPU     17.76s WALL (      28 calls)
     v_h          :      0.85s CPU      0.85s WALL (      28 calls)
     v_xc         :     17.71s CPU     18.12s WALL (      30 calls)
     newd         :    248.75s CPU    249.57s WALL (      28 calls)
     mix_rho      :     90.14s CPU     90.44s WALL (      27 calls)

     Called by c_bands:
     init_us_2    :      5.41s CPU      5.42s WALL (     340 calls)
     cegterg      :    755.39s CPU    772.89s WALL (     135 calls)

     Called by sum_band:
     sum_band:bec :      0.30s CPU      0.28s WALL (     135 calls)
     addusdens    :    284.18s CPU    284.73s WALL (      27 calls)

     Called by *egterg:
     h_psi        :    557.65s CPU    558.87s WALL (     543 calls)
     s_psi        :     44.00s CPU     44.03s WALL (     598 calls)
     g_psi        :      1.05s CPU      1.06s WALL (     403 calls)
     cdiaghg      :     58.11s CPU     58.40s WALL (     538 calls)
     cegterg:over :     43.05s CPU     43.06s WALL (     403 calls)
     cegterg:upda :     32.11s CPU     32.34s WALL (     403 calls)
     cegterg:last :     19.72s CPU     19.74s WALL (     135 calls)
     cdiaghg:chol :      2.80s CPU      2.82s WALL (     538 calls)
     cdiaghg:inve :      0.94s CPU      0.98s WALL (     538 calls)
     cdiaghg:para :     11.50s CPU     11.42s WALL (    1076 calls)

     Called by h_psi:
     h_psi:vloc   :    366.87s CPU    367.95s WALL (     543 calls)
     h_psi:vnl    :     77.91s CPU     77.96s WALL (     543 calls)
     add_vuspsi   :     37.66s CPU     37.66s WALL (     543 calls)
     vhpsi        :    110.88s CPU    111.02s WALL (     543 calls)

     General routines
     calbec       :    128.08s CPU    128.24s WALL (    2551 calls)
     fft          :     18.07s CPU     18.25s WALL (     902 calls)
     ffts         :     42.43s CPU     42.47s WALL (   10318 calls)
     fftw         :    375.49s CPU    376.87s WALL (   70649 calls)
     interpolate  :      3.05s CPU      3.07s WALL (     110 calls)
     davcio       :      9.75s CPU     63.53s WALL (     995 calls)
 
     Parallel routines
     fft_scatter  :    186.87s CPU    187.01s WALL (   81869 calls)
     ALLTOALL     :      9.10s CPU      9.24s WALL (   70527 calls)
     Hubbard U routines
     new_ns       :     14.82s CPU     26.73s WALL (      27 calls)
     vhpsi        :    110.88s CPU    111.02s WALL (     543 calls)
     force_hub    :     17.31s CPU     18.01s WALL (       1 calls)
     stres_hub    :    165.53s CPU    173.35s WALL (       1 calls)
 
     PAW routines
     PAW_pot      :      6.98s CPU      7.02s WALL (      28 calls)
     PAW_ddot     :      5.88s CPU      5.82s WALL (     931 calls)
 
     PWSCF        : 34m21.26s CPU    38m27.90s WALL

 
   This run was terminated on:   5:27:41  12Dec2015            

=------------------------------------------------------------------------------=
   JOB DONE.
=------------------------------------------------------------------------------=
Application 19354453 resources: utime ~107040s, stime ~3245s, Rss ~517872, inblocks ~4790507837, outblocks ~761739120
