
     Program PROJWFC v.5.0.2 (svn rev. 9656) starts on  4Aug2015 at 10: 0:44 

     This program is part of the open-source Quantum ESPRESSO suite
     for quantum simulation of materials; please cite
         "P. Giannozzi et al., J. Phys.:Condens. Matter 21 395502 (2009);
          URL http://www.quantum-espresso.org", 
     in publications or presentations arising from this work. More details at
     http://www.quantum-espresso.org/quote.php

     Parallel version (MPI & OpenMP), running on      48 processor cores
     Number of MPI processes:                48
     Threads/MPI process:                     1
     K-points division:     npool     =       4
     R & G space division:  proc/nbgrp/npool/nimage =      12

   Info: using nr1, nr2, nr3 values from input

   Info: using nr1s, nr2s, nr3s values from input

     IMPORTANT: XC functional enforced from input :
     Exchange-correlation      = PBE ( 1 4 3 4 0)
     EXX-fraction              =        0.00
     Any further DFT definition will be discarded
     Please, verify this is what you really want

               file Fe.pbe-spn-kjpaw_psl.0.2.1.UPF: wavefunction(s)  3D renormalized
               file O.pbe-n-kjpaw_psl.0.1.UPF: wavefunction(s)  2P renormalized
               file H.pbe-kjpaw_psl.0.1.upf: wavefunction(s)  1S renormalized
 
     Parallelization info
     --------------------
     sticks:   dense  smooth     PW     G-vecs:    dense   smooth      PW
     Min         608     288     79               124119    40608    5765
     Max         610     289     80               124128    40659    5774
     Sum        7305    3457    949              1489451   487579   69203
 

     Check: negative/imaginary core charge=   -0.000011    0.000000

     negative rho (up, down):  0.538E-04 0.131E-02

     Gaussian broadening (read from input): ngauss,degauss=   0    0.010000


     Calling pprojwave .... 
 
  Problem Sizes 
  natomwfc =          266
  nbnd     =          202
  nkstot   =           20
  npwx     =         5107
  nkb      =          372
 

     Atomic states used for projection
     (read from pseudopotential files):

     state #   1: atom   1 (Fe ), wfc  1 (l=0 m= 1)
     state #   2: atom   1 (Fe ), wfc  2 (l=0 m= 1)
     state #   3: atom   1 (Fe ), wfc  3 (l=1 m= 1)
     state #   4: atom   1 (Fe ), wfc  3 (l=1 m= 2)
     state #   5: atom   1 (Fe ), wfc  3 (l=1 m= 3)
     state #   6: atom   1 (Fe ), wfc  4 (l=1 m= 1)
     state #   7: atom   1 (Fe ), wfc  4 (l=1 m= 2)
     state #   8: atom   1 (Fe ), wfc  4 (l=1 m= 3)
     state #   9: atom   1 (Fe ), wfc  5 (l=2 m= 1)
     state #  10: atom   1 (Fe ), wfc  5 (l=2 m= 2)
     state #  11: atom   1 (Fe ), wfc  5 (l=2 m= 3)
     state #  12: atom   1 (Fe ), wfc  5 (l=2 m= 4)
     state #  13: atom   1 (Fe ), wfc  5 (l=2 m= 5)
     state #  14: atom   2 (Fe ), wfc  1 (l=0 m= 1)
     state #  15: atom   2 (Fe ), wfc  2 (l=0 m= 1)
     state #  16: atom   2 (Fe ), wfc  3 (l=1 m= 1)
     state #  17: atom   2 (Fe ), wfc  3 (l=1 m= 2)
     state #  18: atom   2 (Fe ), wfc  3 (l=1 m= 3)
     state #  19: atom   2 (Fe ), wfc  4 (l=1 m= 1)
     state #  20: atom   2 (Fe ), wfc  4 (l=1 m= 2)
     state #  21: atom   2 (Fe ), wfc  4 (l=1 m= 3)
     state #  22: atom   2 (Fe ), wfc  5 (l=2 m= 1)
     state #  23: atom   2 (Fe ), wfc  5 (l=2 m= 2)
     state #  24: atom   2 (Fe ), wfc  5 (l=2 m= 3)
     state #  25: atom   2 (Fe ), wfc  5 (l=2 m= 4)
     state #  26: atom   2 (Fe ), wfc  5 (l=2 m= 5)
     state #  27: atom   3 (Fe ), wfc  1 (l=0 m= 1)
     state #  28: atom   3 (Fe ), wfc  2 (l=0 m= 1)
     state #  29: atom   3 (Fe ), wfc  3 (l=1 m= 1)
     state #  30: atom   3 (Fe ), wfc  3 (l=1 m= 2)
     state #  31: atom   3 (Fe ), wfc  3 (l=1 m= 3)
     state #  32: atom   3 (Fe ), wfc  4 (l=1 m= 1)
     state #  33: atom   3 (Fe ), wfc  4 (l=1 m= 2)
     state #  34: atom   3 (Fe ), wfc  4 (l=1 m= 3)
     state #  35: atom   3 (Fe ), wfc  5 (l=2 m= 1)
     state #  36: atom   3 (Fe ), wfc  5 (l=2 m= 2)
     state #  37: atom   3 (Fe ), wfc  5 (l=2 m= 3)
     state #  38: atom   3 (Fe ), wfc  5 (l=2 m= 4)
     state #  39: atom   3 (Fe ), wfc  5 (l=2 m= 5)
     state #  40: atom   4 (Fe ), wfc  1 (l=0 m= 1)
     state #  41: atom   4 (Fe ), wfc  2 (l=0 m= 1)
     state #  42: atom   4 (Fe ), wfc  3 (l=1 m= 1)
     state #  43: atom   4 (Fe ), wfc  3 (l=1 m= 2)
     state #  44: atom   4 (Fe ), wfc  3 (l=1 m= 3)
     state #  45: atom   4 (Fe ), wfc  4 (l=1 m= 1)
     state #  46: atom   4 (Fe ), wfc  4 (l=1 m= 2)
     state #  47: atom   4 (Fe ), wfc  4 (l=1 m= 3)
     state #  48: atom   4 (Fe ), wfc  5 (l=2 m= 1)
     state #  49: atom   4 (Fe ), wfc  5 (l=2 m= 2)
     state #  50: atom   4 (Fe ), wfc  5 (l=2 m= 3)
     state #  51: atom   4 (Fe ), wfc  5 (l=2 m= 4)
     state #  52: atom   4 (Fe ), wfc  5 (l=2 m= 5)
     state #  53: atom   5 (Fe ), wfc  1 (l=0 m= 1)
     state #  54: atom   5 (Fe ), wfc  2 (l=0 m= 1)
     state #  55: atom   5 (Fe ), wfc  3 (l=1 m= 1)
     state #  56: atom   5 (Fe ), wfc  3 (l=1 m= 2)
     state #  57: atom   5 (Fe ), wfc  3 (l=1 m= 3)
     state #  58: atom   5 (Fe ), wfc  4 (l=1 m= 1)
     state #  59: atom   5 (Fe ), wfc  4 (l=1 m= 2)
     state #  60: atom   5 (Fe ), wfc  4 (l=1 m= 3)
     state #  61: atom   5 (Fe ), wfc  5 (l=2 m= 1)
     state #  62: atom   5 (Fe ), wfc  5 (l=2 m= 2)
     state #  63: atom   5 (Fe ), wfc  5 (l=2 m= 3)
     state #  64: atom   5 (Fe ), wfc  5 (l=2 m= 4)
     state #  65: atom   5 (Fe ), wfc  5 (l=2 m= 5)
     state #  66: atom   6 (Fe ), wfc  1 (l=0 m= 1)
     state #  67: atom   6 (Fe ), wfc  2 (l=0 m= 1)
     state #  68: atom   6 (Fe ), wfc  3 (l=1 m= 1)
     state #  69: atom   6 (Fe ), wfc  3 (l=1 m= 2)
     state #  70: atom   6 (Fe ), wfc  3 (l=1 m= 3)
     state #  71: atom   6 (Fe ), wfc  4 (l=1 m= 1)
     state #  72: atom   6 (Fe ), wfc  4 (l=1 m= 2)
     state #  73: atom   6 (Fe ), wfc  4 (l=1 m= 3)
     state #  74: atom   6 (Fe ), wfc  5 (l=2 m= 1)
     state #  75: atom   6 (Fe ), wfc  5 (l=2 m= 2)
     state #  76: atom   6 (Fe ), wfc  5 (l=2 m= 3)
     state #  77: atom   6 (Fe ), wfc  5 (l=2 m= 4)
     state #  78: atom   6 (Fe ), wfc  5 (l=2 m= 5)
     state #  79: atom   7 (Fe ), wfc  1 (l=0 m= 1)
     state #  80: atom   7 (Fe ), wfc  2 (l=0 m= 1)
     state #  81: atom   7 (Fe ), wfc  3 (l=1 m= 1)
     state #  82: atom   7 (Fe ), wfc  3 (l=1 m= 2)
     state #  83: atom   7 (Fe ), wfc  3 (l=1 m= 3)
     state #  84: atom   7 (Fe ), wfc  4 (l=1 m= 1)
     state #  85: atom   7 (Fe ), wfc  4 (l=1 m= 2)
     state #  86: atom   7 (Fe ), wfc  4 (l=1 m= 3)
     state #  87: atom   7 (Fe ), wfc  5 (l=2 m= 1)
     state #  88: atom   7 (Fe ), wfc  5 (l=2 m= 2)
     state #  89: atom   7 (Fe ), wfc  5 (l=2 m= 3)
     state #  90: atom   7 (Fe ), wfc  5 (l=2 m= 4)
     state #  91: atom   7 (Fe ), wfc  5 (l=2 m= 5)
     state #  92: atom   8 (Fe ), wfc  1 (l=0 m= 1)
     state #  93: atom   8 (Fe ), wfc  2 (l=0 m= 1)
     state #  94: atom   8 (Fe ), wfc  3 (l=1 m= 1)
     state #  95: atom   8 (Fe ), wfc  3 (l=1 m= 2)
     state #  96: atom   8 (Fe ), wfc  3 (l=1 m= 3)
     state #  97: atom   8 (Fe ), wfc  4 (l=1 m= 1)
     state #  98: atom   8 (Fe ), wfc  4 (l=1 m= 2)
     state #  99: atom   8 (Fe ), wfc  4 (l=1 m= 3)
     state # 100: atom   8 (Fe ), wfc  5 (l=2 m= 1)
     state # 101: atom   8 (Fe ), wfc  5 (l=2 m= 2)
     state # 102: atom   8 (Fe ), wfc  5 (l=2 m= 3)
     state # 103: atom   8 (Fe ), wfc  5 (l=2 m= 4)
     state # 104: atom   8 (Fe ), wfc  5 (l=2 m= 5)
     state # 105: atom   9 (Fe ), wfc  1 (l=0 m= 1)
     state # 106: atom   9 (Fe ), wfc  2 (l=0 m= 1)
     state # 107: atom   9 (Fe ), wfc  3 (l=1 m= 1)
     state # 108: atom   9 (Fe ), wfc  3 (l=1 m= 2)
     state # 109: atom   9 (Fe ), wfc  3 (l=1 m= 3)
     state # 110: atom   9 (Fe ), wfc  4 (l=1 m= 1)
     state # 111: atom   9 (Fe ), wfc  4 (l=1 m= 2)
     state # 112: atom   9 (Fe ), wfc  4 (l=1 m= 3)
     state # 113: atom   9 (Fe ), wfc  5 (l=2 m= 1)
     state # 114: atom   9 (Fe ), wfc  5 (l=2 m= 2)
     state # 115: atom   9 (Fe ), wfc  5 (l=2 m= 3)
     state # 116: atom   9 (Fe ), wfc  5 (l=2 m= 4)
     state # 117: atom   9 (Fe ), wfc  5 (l=2 m= 5)
     state # 118: atom  10 (Fe ), wfc  1 (l=0 m= 1)
     state # 119: atom  10 (Fe ), wfc  2 (l=0 m= 1)
     state # 120: atom  10 (Fe ), wfc  3 (l=1 m= 1)
     state # 121: atom  10 (Fe ), wfc  3 (l=1 m= 2)
     state # 122: atom  10 (Fe ), wfc  3 (l=1 m= 3)
     state # 123: atom  10 (Fe ), wfc  4 (l=1 m= 1)
     state # 124: atom  10 (Fe ), wfc  4 (l=1 m= 2)
     state # 125: atom  10 (Fe ), wfc  4 (l=1 m= 3)
     state # 126: atom  10 (Fe ), wfc  5 (l=2 m= 1)
     state # 127: atom  10 (Fe ), wfc  5 (l=2 m= 2)
     state # 128: atom  10 (Fe ), wfc  5 (l=2 m= 3)
     state # 129: atom  10 (Fe ), wfc  5 (l=2 m= 4)
     state # 130: atom  10 (Fe ), wfc  5 (l=2 m= 5)
     state # 131: atom  11 (Fe ), wfc  1 (l=0 m= 1)
     state # 132: atom  11 (Fe ), wfc  2 (l=0 m= 1)
     state # 133: atom  11 (Fe ), wfc  3 (l=1 m= 1)
     state # 134: atom  11 (Fe ), wfc  3 (l=1 m= 2)
     state # 135: atom  11 (Fe ), wfc  3 (l=1 m= 3)
     state # 136: atom  11 (Fe ), wfc  4 (l=1 m= 1)
     state # 137: atom  11 (Fe ), wfc  4 (l=1 m= 2)
     state # 138: atom  11 (Fe ), wfc  4 (l=1 m= 3)
     state # 139: atom  11 (Fe ), wfc  5 (l=2 m= 1)
     state # 140: atom  11 (Fe ), wfc  5 (l=2 m= 2)
     state # 141: atom  11 (Fe ), wfc  5 (l=2 m= 3)
     state # 142: atom  11 (Fe ), wfc  5 (l=2 m= 4)
     state # 143: atom  11 (Fe ), wfc  5 (l=2 m= 5)
     state # 144: atom  12 (Fe ), wfc  1 (l=0 m= 1)
     state # 145: atom  12 (Fe ), wfc  2 (l=0 m= 1)
     state # 146: atom  12 (Fe ), wfc  3 (l=1 m= 1)
     state # 147: atom  12 (Fe ), wfc  3 (l=1 m= 2)
     state # 148: atom  12 (Fe ), wfc  3 (l=1 m= 3)
     state # 149: atom  12 (Fe ), wfc  4 (l=1 m= 1)
     state # 150: atom  12 (Fe ), wfc  4 (l=1 m= 2)
     state # 151: atom  12 (Fe ), wfc  4 (l=1 m= 3)
     state # 152: atom  12 (Fe ), wfc  5 (l=2 m= 1)
     state # 153: atom  12 (Fe ), wfc  5 (l=2 m= 2)
     state # 154: atom  12 (Fe ), wfc  5 (l=2 m= 3)
     state # 155: atom  12 (Fe ), wfc  5 (l=2 m= 4)
     state # 156: atom  12 (Fe ), wfc  5 (l=2 m= 5)
     state # 157: atom  13 (Fe ), wfc  1 (l=0 m= 1)
     state # 158: atom  13 (Fe ), wfc  2 (l=0 m= 1)
     state # 159: atom  13 (Fe ), wfc  3 (l=1 m= 1)
     state # 160: atom  13 (Fe ), wfc  3 (l=1 m= 2)
     state # 161: atom  13 (Fe ), wfc  3 (l=1 m= 3)
     state # 162: atom  13 (Fe ), wfc  4 (l=1 m= 1)
     state # 163: atom  13 (Fe ), wfc  4 (l=1 m= 2)
     state # 164: atom  13 (Fe ), wfc  4 (l=1 m= 3)
     state # 165: atom  13 (Fe ), wfc  5 (l=2 m= 1)
     state # 166: atom  13 (Fe ), wfc  5 (l=2 m= 2)
     state # 167: atom  13 (Fe ), wfc  5 (l=2 m= 3)
     state # 168: atom  13 (Fe ), wfc  5 (l=2 m= 4)
     state # 169: atom  13 (Fe ), wfc  5 (l=2 m= 5)
     state # 170: atom  14 (Fe ), wfc  1 (l=0 m= 1)
     state # 171: atom  14 (Fe ), wfc  2 (l=0 m= 1)
     state # 172: atom  14 (Fe ), wfc  3 (l=1 m= 1)
     state # 173: atom  14 (Fe ), wfc  3 (l=1 m= 2)
     state # 174: atom  14 (Fe ), wfc  3 (l=1 m= 3)
     state # 175: atom  14 (Fe ), wfc  4 (l=1 m= 1)
     state # 176: atom  14 (Fe ), wfc  4 (l=1 m= 2)
     state # 177: atom  14 (Fe ), wfc  4 (l=1 m= 3)
     state # 178: atom  14 (Fe ), wfc  5 (l=2 m= 1)
     state # 179: atom  14 (Fe ), wfc  5 (l=2 m= 2)
     state # 180: atom  14 (Fe ), wfc  5 (l=2 m= 3)
     state # 181: atom  14 (Fe ), wfc  5 (l=2 m= 4)
     state # 182: atom  14 (Fe ), wfc  5 (l=2 m= 5)
     state # 183: atom  15 (Fe ), wfc  1 (l=0 m= 1)
     state # 184: atom  15 (Fe ), wfc  2 (l=0 m= 1)
     state # 185: atom  15 (Fe ), wfc  3 (l=1 m= 1)
     state # 186: atom  15 (Fe ), wfc  3 (l=1 m= 2)
     state # 187: atom  15 (Fe ), wfc  3 (l=1 m= 3)
     state # 188: atom  15 (Fe ), wfc  4 (l=1 m= 1)
     state # 189: atom  15 (Fe ), wfc  4 (l=1 m= 2)
     state # 190: atom  15 (Fe ), wfc  4 (l=1 m= 3)
     state # 191: atom  15 (Fe ), wfc  5 (l=2 m= 1)
     state # 192: atom  15 (Fe ), wfc  5 (l=2 m= 2)
     state # 193: atom  15 (Fe ), wfc  5 (l=2 m= 3)
     state # 194: atom  15 (Fe ), wfc  5 (l=2 m= 4)
     state # 195: atom  15 (Fe ), wfc  5 (l=2 m= 5)
     state # 196: atom  16 (Fe ), wfc  1 (l=0 m= 1)
     state # 197: atom  16 (Fe ), wfc  2 (l=0 m= 1)
     state # 198: atom  16 (Fe ), wfc  3 (l=1 m= 1)
     state # 199: atom  16 (Fe ), wfc  3 (l=1 m= 2)
     state # 200: atom  16 (Fe ), wfc  3 (l=1 m= 3)
     state # 201: atom  16 (Fe ), wfc  4 (l=1 m= 1)
     state # 202: atom  16 (Fe ), wfc  4 (l=1 m= 2)
     state # 203: atom  16 (Fe ), wfc  4 (l=1 m= 3)
     state # 204: atom  16 (Fe ), wfc  5 (l=2 m= 1)
     state # 205: atom  16 (Fe ), wfc  5 (l=2 m= 2)
     state # 206: atom  16 (Fe ), wfc  5 (l=2 m= 3)
     state # 207: atom  16 (Fe ), wfc  5 (l=2 m= 4)
     state # 208: atom  16 (Fe ), wfc  5 (l=2 m= 5)
     state # 209: atom  17 (Fe ), wfc  1 (l=0 m= 1)
     state # 210: atom  17 (Fe ), wfc  2 (l=0 m= 1)
     state # 211: atom  17 (Fe ), wfc  3 (l=1 m= 1)
     state # 212: atom  17 (Fe ), wfc  3 (l=1 m= 2)
     state # 213: atom  17 (Fe ), wfc  3 (l=1 m= 3)
     state # 214: atom  17 (Fe ), wfc  4 (l=1 m= 1)
     state # 215: atom  17 (Fe ), wfc  4 (l=1 m= 2)
     state # 216: atom  17 (Fe ), wfc  4 (l=1 m= 3)
     state # 217: atom  17 (Fe ), wfc  5 (l=2 m= 1)
     state # 218: atom  17 (Fe ), wfc  5 (l=2 m= 2)
     state # 219: atom  17 (Fe ), wfc  5 (l=2 m= 3)
     state # 220: atom  17 (Fe ), wfc  5 (l=2 m= 4)
     state # 221: atom  17 (Fe ), wfc  5 (l=2 m= 5)
     state # 222: atom  18 (Fe ), wfc  1 (l=0 m= 1)
     state # 223: atom  18 (Fe ), wfc  2 (l=0 m= 1)
     state # 224: atom  18 (Fe ), wfc  3 (l=1 m= 1)
     state # 225: atom  18 (Fe ), wfc  3 (l=1 m= 2)
     state # 226: atom  18 (Fe ), wfc  3 (l=1 m= 3)
     state # 227: atom  18 (Fe ), wfc  4 (l=1 m= 1)
     state # 228: atom  18 (Fe ), wfc  4 (l=1 m= 2)
     state # 229: atom  18 (Fe ), wfc  4 (l=1 m= 3)
     state # 230: atom  18 (Fe ), wfc  5 (l=2 m= 1)
     state # 231: atom  18 (Fe ), wfc  5 (l=2 m= 2)
     state # 232: atom  18 (Fe ), wfc  5 (l=2 m= 3)
     state # 233: atom  18 (Fe ), wfc  5 (l=2 m= 4)
     state # 234: atom  18 (Fe ), wfc  5 (l=2 m= 5)
     state # 235: atom  19 (Fe ), wfc  1 (l=0 m= 1)
     state # 236: atom  19 (Fe ), wfc  2 (l=0 m= 1)
     state # 237: atom  19 (Fe ), wfc  3 (l=1 m= 1)
     state # 238: atom  19 (Fe ), wfc  3 (l=1 m= 2)
     state # 239: atom  19 (Fe ), wfc  3 (l=1 m= 3)
     state # 240: atom  19 (Fe ), wfc  4 (l=1 m= 1)
     state # 241: atom  19 (Fe ), wfc  4 (l=1 m= 2)
     state # 242: atom  19 (Fe ), wfc  4 (l=1 m= 3)
     state # 243: atom  19 (Fe ), wfc  5 (l=2 m= 1)
     state # 244: atom  19 (Fe ), wfc  5 (l=2 m= 2)
     state # 245: atom  19 (Fe ), wfc  5 (l=2 m= 3)
     state # 246: atom  19 (Fe ), wfc  5 (l=2 m= 4)
     state # 247: atom  19 (Fe ), wfc  5 (l=2 m= 5)
     state # 248: atom  20 (Fe ), wfc  1 (l=0 m= 1)
     state # 249: atom  20 (Fe ), wfc  2 (l=0 m= 1)
     state # 250: atom  20 (Fe ), wfc  3 (l=1 m= 1)
     state # 251: atom  20 (Fe ), wfc  3 (l=1 m= 2)
     state # 252: atom  20 (Fe ), wfc  3 (l=1 m= 3)
     state # 253: atom  20 (Fe ), wfc  4 (l=1 m= 1)
     state # 254: atom  20 (Fe ), wfc  4 (l=1 m= 2)
     state # 255: atom  20 (Fe ), wfc  4 (l=1 m= 3)
     state # 256: atom  20 (Fe ), wfc  5 (l=2 m= 1)
     state # 257: atom  20 (Fe ), wfc  5 (l=2 m= 2)
     state # 258: atom  20 (Fe ), wfc  5 (l=2 m= 3)
     state # 259: atom  20 (Fe ), wfc  5 (l=2 m= 4)
     state # 260: atom  20 (Fe ), wfc  5 (l=2 m= 5)
     state # 261: atom  21 (O  ), wfc  1 (l=0 m= 1)
     state # 262: atom  21 (O  ), wfc  2 (l=1 m= 1)
     state # 263: atom  21 (O  ), wfc  2 (l=1 m= 2)
     state # 264: atom  21 (O  ), wfc  2 (l=1 m= 3)
     state # 265: atom  22 (H  ), wfc  1 (l=0 m= 1)
     state # 266: atom  23 (H  ), wfc  1 (l=0 m= 1)

 k =   0.0000000000  0.0000000000  0.0000000000
     e =   -83.72621 eV
     psi = 0.470*[# 209]+0.461*[# 235]+0.007*[# 162]+0.007*[# 175]+0.007*[# 188]+
          +0.007*[# 201]+0.004*[# 164]+0.004*[# 190]+0.004*[# 203]+0.004*[# 177]+
          +0.003*[# 110]+0.003*[# 136]+0.002*[# 158]+0.002*[# 184]+0.002*[# 171]+
          +0.002*[# 197]+0.001*[# 210]+0.001*[# 236]+0.001*[# 262]+
    |psi|^2 = 1.000
     e =   -83.72017 eV
     psi = 0.488*[# 235]+0.479*[# 209]+0.005*[# 210]+0.005*[# 236]+0.004*[# 189]+
          +0.004*[# 202]+0.004*[# 163]+0.004*[# 176]+0.002*[# 263]+
    |psi|^2 = 1.000
     e =   -83.60519 eV
     psi = 0.242*[#  40]+0.242*[#  14]+0.211*[#  27]+0.210*[#   1]+0.013*[#  58]+
          +0.013*[#  71]+0.013*[#  84]+0.013*[#  97]+0.004*[#  54]+0.004*[#  67]+
          +0.004*[#  80]+0.004*[#  93]+0.004*[# 123]+0.004*[# 149]+0.003*[# 110]+
          +0.003*[# 136]+
    |psi|^2 = 1.000
     e =   -83.59853 eV
     psi = 0.333*[#  14]+0.290*[#  27]+0.184*[#  40]+0.145*[#   1]+0.009*[#  59]+
          +0.009*[#  72]+0.009*[#  85]+0.009*[#  98]+0.003*[#  15]+0.002*[#  28]+
          +0.001*[#  41]+
    |psi|^2 = 1.000
     e =   -83.59851 eV
     psi = 0.325*[#   1]+0.297*[#  40]+0.181*[#  27]+0.149*[#  14]+0.009*[#  60]+
          +0.009*[#  73]+0.009*[#  86]+0.009*[#  99]+0.002*[#   2]+0.002*[#  41]+
          +0.001*[#  28]+0.001*[#  15]+
    |psi|^2 = 1.000
     e =   -83.59344 eV
     psi = 0.267*[#   1]+0.266*[#  27]+0.224*[#  14]+0.224*[#  40]+0.004*[#   2]+
          +0.004*[#  28]+0.004*[#  15]+0.004*[#  41]+
    |psi|^2 = 1.000
     e =   -83.44662 eV
     psi = 0.464*[# 222]+0.459*[# 248]+0.007*[# 162]+0.007*[# 175]+0.006*[# 188]+
          +0.006*[# 201]+0.005*[# 164]+0.005*[# 177]+0.005*[# 265]+0.005*[# 190]+
          +0.005*[# 203]+0.003*[# 123]+0.003*[# 149]+0.002*[# 158]+0.002*[# 171]+
          +0.002*[# 184]+0.002*[# 197]+0.002*[# 223]+0.002*[# 249]+
    |psi|^2 = 1.000
     e =   -83.43934 eV
     psi = 0.485*[# 248]+0.480*[# 222]+0.006*[# 223]+0.006*[# 249]+0.005*[# 189]+
          +0.005*[# 202]+0.005*[# 163]+0.004*[# 176]+
    |psi|^2 = 1.000
     e =   -82.93546 eV
     psi = 0.161*[# 144]+0.160*[# 118]+0.107*[# 170]+0.090*[# 157]+0.054*[# 105]+
          +0.054*[# 131]+0.053*[#  92]+0.053*[#  79]+0.039*[#  66]+0.036*[#  53]+
          +0.032*[# 196]+0.018*[# 183]+0.008*[#  71]+0.008*[#  58]+0.007*[# 162]+
          +0.007*[# 175]+0.007*[# 188]+0.007*[# 201]+0.007*[#  97]+0.007*[#  84]+
          +0.006*[# 227]+0.006*[# 253]+0.005*[#  19]+0.005*[#  45]+0.005*[# 214]+
          +0.005*[# 240]+0.004*[#   6]+0.004*[#  32]+0.004*[#   2]+0.004*[#  28]+
          +0.004*[# 223]+0.004*[# 249]+0.003*[#  15]+0.003*[#  41]+0.003*[# 210]+
          +0.003*[# 236]+0.002*[# 184]+0.001*[# 106]+0.001*[# 132]+0.001*[#  54]+
          +0.001*[#  67]+0.001*[# 197]+0.001*[#  80]+0.001*[#  93]+
    |psi|^2 = 1.000
     e =   -82.89223 eV
     psi = 0.726*[# 170]+0.065*[#  79]+0.063*[#  92]+0.014*[# 157]+0.014*[# 118]+
          +0.014*[# 144]+0.013*[# 171]+0.012*[#  53]+0.005*[# 110]+0.005*[# 136]+
          +0.005*[# 123]+0.005*[# 149]+0.003*[# 183]+0.003*[#  66]+0.003*[# 111]+
          +0.003*[# 124]+0.003*[# 137]+0.003*[# 150]+0.003*[# 112]+0.003*[# 125]+
          +0.003*[# 138]+0.003*[# 151]+0.002*[# 229]+0.002*[# 255]+0.001*[# 216]+
          +0.001*[# 242]+0.001*[#  80]+0.001*[# 228]+0.001*[# 254]+0.001*[#  19]+
          +0.001*[#  45]+
    |psi|^2 = 1.000
     e =   -82.89092 eV
     psi = 0.472*[# 144]+0.470*[# 118]+0.007*[# 119]+0.007*[# 145]+0.004*[# 163]+
          +0.004*[# 176]+0.004*[#  59]+0.004*[#  72]+0.004*[#  85]+0.004*[#  98]+
          +0.004*[# 189]+0.004*[# 202]+0.002*[# 105]+0.002*[# 131]+
    |psi|^2 = 1.000
     e =   -82.88971 eV
     psi = 0.725*[# 157]+0.079*[#  92]+0.055*[#  79]+0.013*[# 196]+0.012*[# 158]+
          +0.011*[#  66]+0.011*[# 170]+0.008*[# 144]+0.008*[# 118]+0.005*[# 110]+
          +0.005*[# 136]+0.005*[# 123]+0.005*[# 149]+0.003*[# 111]+0.003*[# 124]+
          +0.003*[# 137]+0.003*[# 150]+0.003*[# 112]+0.003*[# 125]+0.003*[# 138]+
          +0.003*[# 151]+0.002*[# 229]+0.002*[# 255]+0.002*[#  93]+0.002*[# 216]+
          +0.002*[# 242]+0.001*[# 228]+0.001*[# 254]+0.001*[#  58]+0.001*[# 215]+
          +0.001*[# 241]+
    |psi|^2 = 1.000
     e =   -82.88140 eV
     psi = 0.490*[#  79]+0.398*[#  92]+0.025*[#  66]+0.017*[#  53]+0.007*[#  80]+
          +0.006*[# 196]+0.006*[#  93]+0.005*[# 112]+0.005*[# 125]+0.005*[# 138]+
          +0.005*[# 151]+0.004*[#   8]+0.004*[#  21]+0.004*[#  34]+0.004*[#  47]+
          +0.003*[# 157]+0.003*[# 170]+
    |psi|^2 = 1.000
     e =   -82.88011 eV
     psi = 0.187*[#  92]+0.163*[# 118]+0.161*[# 144]+0.149*[#  79]+0.090*[# 131]+
          +0.089*[# 105]+0.029*[#  66]+0.019*[#  53]+0.017*[# 157]+0.013*[# 170]+
          +0.012*[# 196]+0.004*[# 119]+0.004*[# 145]+0.004*[# 164]+0.004*[# 177]+
          +0.004*[#  60]+0.004*[#  73]+0.004*[#  86]+0.004*[#  99]+0.004*[# 190]+
          +0.004*[# 203]+0.002*[#  93]+0.002*[#   7]+0.002*[#  20]+0.002*[#  33]+
          +0.002*[#  46]+0.002*[#  80]+0.001*[# 111]+0.001*[# 124]+0.001*[# 137]+
          +0.001*[# 150]+
    |psi|^2 = 1.000
     e =   -82.87658 eV
     psi = 0.470*[# 196]+0.078*[#  92]+0.072*[# 131]+0.072*[# 105]+0.047*[# 118]+
          +0.047*[# 144]+0.044*[#  66]+0.041*[#  53]+0.032*[# 170]+0.019*[#  79]+
          +0.013*[# 183]+0.009*[# 157]+0.005*[# 197]+0.002*[# 228]+0.002*[# 254]+
          +0.002*[# 177]+0.002*[# 190]+0.002*[#  60]+0.002*[#  73]+0.002*[#  86]+
          +0.002*[#  99]+0.002*[# 164]+0.002*[# 203]+0.002*[# 119]+0.002*[# 215]+
          +0.002*[# 241]+0.002*[# 145]+0.002*[#  93]+0.001*[#   7]+0.001*[#  20]+
          +0.001*[#  33]+0.001*[#  46]+0.001*[#  97]+0.001*[# 214]+0.001*[# 240]+
    |psi|^2 = 1.000
     e =   -82.87511 eV
     psi = 0.405*[#  66]+0.285*[# 196]+0.127*[#  53]+0.018*[# 131]+0.018*[# 105]+
          +0.015*[# 118]+0.015*[# 144]+0.011*[#  92]+0.006*[# 110]+0.006*[# 136]+
          +0.006*[# 123]+0.006*[# 149]+0.006*[# 111]+0.006*[# 124]+0.006*[# 137]+
          +0.006*[# 150]+0.005*[#  79]+0.005*[#  67]+0.005*[# 157]+0.005*[# 197]+
          +0.002*[#   7]+0.002*[#  20]+0.002*[#  33]+0.002*[#  46]+0.002*[#  54]+
          +0.002*[# 183]+0.001*[#   6]+0.001*[#  32]+0.001*[# 175]+
    |psi|^2 = 1.000
     e =   -82.86918 eV
     psi = 0.592*[#  53]+0.300*[#  66]+0.038*[#  79]+0.017*[#  92]+0.009*[#  54]+
          +0.006*[# 157]+0.006*[# 196]+0.005*[#  67]+0.002*[#   8]+0.002*[#  21]+
          +0.002*[#  34]+0.002*[#  47]+0.002*[# 112]+0.002*[# 125]+0.002*[# 138]+
          +0.002*[# 151]+0.001*[# 170]+0.001*[# 105]+0.001*[# 131]+
    |psi|^2 = 1.000
     e =   -82.85922 eV
     psi = 0.473*[# 105]+0.473*[# 131]+0.008*[# 106]+0.008*[# 132]+0.005*[# 118]+
          +0.005*[# 144]+0.003*[# 163]+0.003*[# 176]+0.003*[#  59]+0.003*[#  72]+
          +0.003*[#  85]+0.003*[#  98]+0.003*[# 189]+0.003*[# 202]+
    |psi|^2 = 1.000
     e =   -82.85734 eV
     psi = 0.745*[# 183]+0.068*[# 196]+0.025*[# 157]+0.021*[#  53]+0.019*[#  79]+
          +0.019*[# 105]+0.019*[# 131]+0.017*[#  66]+0.009*[# 184]+0.006*[#  92]+
          +0.002*[#  84]+0.002*[# 110]+0.002*[# 123]+0.002*[# 136]+0.002*[# 149]+
          +0.002*[# 170]+0.002*[# 229]+0.002*[# 255]+0.002*[# 112]+0.002*[# 125]+
          +0.002*[# 138]+0.002*[# 151]+0.002*[# 111]+0.002*[# 137]+0.002*[# 197]+
          +0.001*[# 124]+0.001*[# 150]+0.002*[# 216]+0.002*[# 242]+0.001*[#  67]+
          +0.001*[# 228]+0.001*[# 254]+0.001*[# 215]+0.001*[# 241]+
    |psi|^2 = 1.000
     e =   -82.83071 eV
     psi = 0.196*[# 105]+0.196*[# 131]+0.148*[# 183]+0.064*[#  53]+0.056*[#  66]+
          +0.044*[# 118]+0.044*[# 144]+0.039*[# 196]+0.038*[#  92]+0.036*[#  79]+
          +0.033*[# 170]+0.033*[# 157]+0.009*[# 106]+0.009*[# 132]+0.004*[# 119]+
          +0.004*[# 145]+0.004*[# 184]+0.002*[#  54]+0.002*[# 175]+0.002*[# 188]+
          +0.002*[#  58]+0.002*[#  67]+0.002*[#  71]+0.002*[# 162]+0.002*[# 201]+
          +0.002*[#  80]+0.002*[#  93]+0.002*[#  97]+0.002*[# 171]+0.002*[# 158]+
          +0.002*[# 197]+0.002*[#  84]+
    |psi|^2 = 1.000
     e =   -49.89892 eV
     psi = 0.454*[# 211]+0.453*[# 237]+0.037*[# 238]+0.037*[# 212]+0.002*[# 262]+
          +0.001*[# 187]+0.001*[# 200]+0.001*[# 190]+0.001*[# 203]+
    |psi|^2 = 1.000
     e =   -49.88616 eV
     psi = 0.473*[# 237]+0.473*[# 211]+0.018*[# 238]+0.018*[# 212]+0.003*[# 263]+
          +0.002*[# 186]+0.001*[# 199]+0.001*[# 214]+0.001*[# 240]+0.001*[# 189]+
          +0.001*[# 160]+
    |psi|^2 = 1.000
     e =   -49.78191 eV
     psi = 0.390*[#  16]+0.386*[#  42]+0.100*[#  29]+0.098*[#   3]+0.004*[#  57]+
          +0.004*[#  70]+0.004*[#  83]+0.004*[#  96]+0.002*[#  60]+0.002*[#  73]+
          +0.002*[#  86]+0.002*[#  99]+
    |psi|^2 = 1.000
     e =   -49.78168 eV
     psi = 0.267*[#  42]+0.263*[#  16]+0.222*[#   3]+0.221*[#  29]+0.004*[#  56]+
          +0.004*[#  69]+0.004*[#  82]+0.004*[#  95]+0.002*[#  59]+0.002*[#  72]+
          +0.002*[#  85]+0.002*[#  98]+
    |psi|^2 = 1.000
     e =   -49.77901 eV
     psi = 0.391*[#   3]+0.390*[#  29]+0.102*[#  16]+0.101*[#  42]+0.002*[#  55]+
          +0.002*[#  68]+0.002*[#  81]+0.002*[#  94]+
    |psi|^2 = 1.000
     e =   -49.76289 eV
     psi = 0.270*[#   3]+0.269*[#  29]+0.226*[#  16]+0.226*[#  42]+0.001*[#   6]+
          +0.001*[#  19]+0.001*[#  32]+0.001*[#  45]+
    |psi|^2 = 1.000
     e =   -49.74589 eV
     psi = 0.444*[# 212]+0.443*[# 238]+0.038*[# 237]+0.037*[# 211]+0.006*[# 213]+
          +0.006*[# 239]+0.002*[# 172]+0.002*[# 174]+0.002*[# 161]+0.002*[# 159]+
          +0.001*[# 175]+0.001*[# 188]+
    |psi|^2 = 1.000
     e =   -49.71809 eV
     psi = 0.477*[# 213]+0.470*[# 239]+0.007*[# 226]+0.007*[# 252]+0.006*[# 212]+
          +0.006*[# 238]+0.004*[# 229]+0.004*[# 255]+0.003*[# 159]+0.002*[# 198]+
          +0.002*[# 162]+0.002*[# 172]+0.001*[# 201]+0.001*[# 185]+0.001*[# 175]+
    |psi|^2 = 1.000
     e =   -49.71161 eV
     psi = 0.480*[# 239]+0.472*[# 213]+0.009*[# 252]+0.009*[# 226]+0.004*[# 212]+
          +0.004*[# 238]+0.002*[# 173]+0.002*[# 186]+0.002*[# 229]+0.002*[# 255]+
          +0.002*[# 199]+0.002*[# 160]+0.002*[# 216]+0.002*[# 242]+
    |psi|^2 = 1.000
     e =   -49.67644 eV
     psi = 0.467*[# 238]+0.466*[# 212]+0.018*[# 237]+0.018*[# 211]+0.007*[# 215]+
          +0.007*[# 241]+0.004*[# 213]+0.005*[# 239]+0.002*[# 160]+
    |psi|^2 = 1.000
     e =   -49.63671 eV
     psi = 0.203*[#  17]+0.203*[#  43]+0.095*[#  31]+0.095*[#   5]+0.092*[#  44]+
          +0.092*[#  18]+0.090*[#   4]+0.090*[#  30]+0.009*[#  94]+0.009*[#  55]+
          +0.004*[#  58]+0.004*[#  97]+0.002*[#  54]+0.002*[#  93]+
    |psi|^2 = 1.000
     e =   -49.63613 eV
     psi = 0.149*[#  31]+0.149*[#   5]+0.144*[#  44]+0.143*[#  18]+0.139*[#  17]+
          +0.139*[#  43]+0.048*[#   4]+0.048*[#  30]+0.009*[#  81]+0.009*[#  68]+
          +0.004*[#  71]+0.004*[#  84]+0.002*[#  67]+0.002*[#  80]+0.001*[#   8]+
          +0.001*[#  21]+0.001*[#  34]+0.001*[#  47]+
    |psi|^2 = 1.000
     e =   -49.63294 eV
     psi = 0.246*[#   5]+0.245*[#  31]+0.238*[#  18]+0.237*[#  44]+0.006*[#  82]+
          +0.006*[#  95]+0.006*[#  56]+0.006*[#  69]+0.002*[#  59]+0.001*[#  72]+
          +0.001*[#  85]+0.001*[#  98]+
    |psi|^2 = 1.000
     e =   -49.63270 eV
     psi = 0.343*[#   4]+0.343*[#  30]+0.139*[#  17]+0.139*[#  43]+0.006*[#  83]+
          +0.006*[#  96]+0.006*[#  57]+0.006*[#  70]+0.001*[#  60]+0.001*[#  73]+
          +0.001*[#  86]+0.001*[#  99]+
    |psi|^2 = 1.000
     e =   -49.62504 eV
     psi = 0.430*[# 250]+0.425*[# 224]+0.054*[# 251]+0.054*[# 225]+0.007*[# 161]+
          +0.007*[# 174]+0.003*[# 159]+0.003*[# 172]+0.002*[# 164]+0.002*[# 177]+
          +0.001*[# 265]+
    |psi|^2 = 1.000
     e =   -49.60803 eV
     psi = 0.465*[# 224]+0.459*[# 250]+0.024*[# 225]+0.024*[# 251]+0.005*[# 160]+
          +0.005*[# 173]+0.002*[# 199]+0.002*[# 186]+
    |psi|^2 = 1.000
     e =   -49.56950 eV
     psi = 0.270*[#  43]+0.270*[#  17]+0.217*[#   4]+0.216*[#  30]+0.004*[#  82]+
          +0.003*[#  69]+0.003*[#  95]+0.003*[#  56]+0.003*[#  20]+0.003*[#  46]+
          +0.002*[#   7]+0.002*[#  33]+
    |psi|^2 = 1.000
     e =   -49.56949 eV
     psi = 0.247*[#  18]+0.247*[#  44]+0.239*[#  31]+0.239*[#   5]+0.004*[#  83]+
          +0.003*[#  70]+0.003*[#  96]+0.003*[#  57]+0.002*[#   8]+0.002*[#  21]+
          +0.002*[#  34]+0.002*[#  47]+
    |psi|^2 = 1.000
     e =   -49.55654 eV
     psi = 0.141*[#  18]+0.141*[#  44]+0.136*[#   5]+0.136*[#  31]+0.118*[#   4]+
          +0.118*[#  30]+0.095*[#  17]+0.095*[#  43]+0.003*[#   8]+0.003*[#  21]+
          +0.003*[#  34]+0.003*[#  47]+0.002*[#   7]+0.002*[#  33]+0.002*[#  20]+
          +0.002*[#  46]+
    |psi|^2 = 1.000
     e =   -49.55590 eV
     psi = 0.154*[#   4]+0.154*[#  30]+0.123*[#  17]+0.123*[#  43]+0.108*[#  18]+
          +0.108*[#  44]+0.105*[#   5]+0.105*[#  31]+0.003*[#   7]+0.003*[#  33]+
          +0.003*[#  20]+0.003*[#  46]+0.002*[#   8]+0.002*[#  21]+0.002*[#  34]+
          +0.002*[#  47]+
    |psi|^2 = 1.000
     e =   -49.48194 eV
     psi = 0.417*[# 225]+0.415*[# 251]+0.054*[# 250]+0.054*[# 224]+0.008*[# 200]+
          +0.006*[# 187]+0.007*[# 265]+0.005*[# 198]+0.004*[# 185]+0.003*[# 159]+
          +0.003*[# 161]+0.003*[# 226]+0.003*[# 252]+0.002*[# 172]+0.002*[# 174]+
          +0.002*[# 203]+0.001*[# 190]+0.001*[# 197]+
    |psi|^2 = 1.000
     e =   -49.45572 eV
     psi = 0.469*[# 226]+0.465*[# 252]+0.008*[# 213]+0.008*[# 239]+0.005*[# 172]+
          +0.005*[# 159]+0.004*[# 174]+0.004*[# 216]+0.004*[# 242]+0.004*[# 161]+
          +0.003*[# 185]+0.003*[# 187]+0.002*[# 198]+0.002*[# 225]+0.002*[# 251]+
          +0.002*[# 200]+
    |psi|^2 = 1.000
     e =   -49.44511 eV
     psi = 0.472*[# 252]+0.467*[# 226]+0.010*[# 213]+0.010*[# 239]+0.007*[# 160]+
          +0.006*[# 173]+0.005*[# 199]+0.005*[# 186]+0.004*[# 216]+0.004*[# 242]+
          +0.003*[# 229]+0.003*[# 255]+
    |psi|^2 = 1.000
     e =   -49.40285 eV
     psi = 0.461*[# 251]+0.459*[# 225]+0.024*[# 250]+0.024*[# 224]+0.007*[# 228]+
          +0.007*[# 254]+0.006*[# 186]+0.005*[# 199]+0.001*[# 173]+
    |psi|^2 = 1.000
     e =   -49.11202 eV
     psi = 0.150*[# 174]+0.138*[# 161]+0.106*[#  83]+0.106*[#  96]+0.097*[# 121]+
          +0.097*[# 147]+0.051*[# 120]+0.051*[# 146]+0.046*[# 108]+0.046*[# 134]+
          +0.031*[# 107]+0.031*[# 133]+0.003*[# 159]+0.003*[# 172]+0.002*[# 225]+
          +0.002*[# 251]+0.002*[# 224]+0.002*[# 250]+0.002*[#   4]+0.002*[#  30]+
          +0.001*[# 164]+0.001*[#  57]+0.001*[#  70]+0.001*[# 177]+0.001*[#  17]+
          +0.001*[#  43]+0.001*[#  86]+0.001*[#  99]+0.001*[# 124]+0.001*[# 150]+
          +0.001*[# 212]+0.001*[# 238]+
    |psi|^2 = 1.000
     e =   -49.09962 eV
     psi = 0.137*[# 148]+0.136*[# 122]+0.099*[# 135]+0.099*[# 109]+0.072*[# 173]+
          +0.072*[# 160]+0.070*[#  95]+0.064*[#  82]+0.062*[#  69]+0.057*[#  56]+
          +0.049*[# 199]+0.043*[# 186]+0.006*[# 226]+0.006*[# 252]+0.003*[#   5]+
          +0.003*[#  18]+0.003*[#  31]+0.003*[#  44]+0.002*[# 112]+0.002*[# 138]+
    |psi|^2 = 1.000
     e =   -49.09553 eV
     psi = 0.122*[# 120]+0.122*[# 146]+0.092*[# 107]+0.092*[# 133]+0.085*[# 173]+
          +0.080*[# 160]+0.079*[#  95]+0.079*[#  82]+0.056*[#  69]+0.054*[#  56]+
          +0.049*[# 199]+0.040*[# 186]+0.004*[# 224]+0.004*[# 250]+0.002*[#   3]+
          +0.002*[#  16]+0.002*[#  29]+0.002*[#  42]+0.001*[# 108]+0.001*[# 121]+
          +0.001*[# 134]+0.001*[# 147]+0.001*[#  59]+0.001*[#  72]+0.001*[# 189]+
          +0.001*[# 202]+
    |psi|^2 = 1.000
     e =   -49.08203 eV
     psi = 0.133*[# 147]+0.132*[# 121]+0.115*[#  70]+0.115*[#  57]+0.070*[# 200]+
          +0.064*[# 120]+0.064*[# 146]+0.057*[# 187]+0.051*[# 107]+0.051*[# 133]+
          +0.020*[# 159]+0.017*[# 198]+0.013*[#  55]+0.013*[#  94]+0.010*[# 172]+
          +0.007*[#  68]+0.007*[# 185]+0.006*[#  81]+0.005*[#  83]+0.004*[#  96]+
          +0.003*[# 174]+0.002*[# 124]+0.002*[# 150]+0.002*[# 161]+0.002*[#   4]+
          +0.002*[#  30]+0.002*[# 224]+0.002*[# 250]+0.002*[# 122]+0.002*[# 148]+
          +0.001*[#   3]+0.001*[#  16]+0.001*[#  29]+0.001*[#  42]+0.001*[#  60]+
          +0.001*[#  73]+0.001*[# 190]+
    |psi|^2 = 1.000
     e =   -49.07726 eV
     psi = 0.151*[# 122]+0.151*[# 148]+0.112*[# 159]+0.078*[# 109]+0.078*[# 135]+
          +0.068*[#  94]+0.059*[#  55]+0.053*[# 198]+0.039*[# 108]+0.039*[# 134]+
          +0.020*[#  70]+0.019*[# 172]+0.016*[#  68]+0.013*[# 185]+0.010*[#  81]+
          +0.010*[# 187]+0.010*[#  57]+0.009*[# 120]+0.009*[# 146]+0.004*[# 112]+
          +0.004*[# 138]+0.003*[# 125]+0.003*[# 151]+0.003*[# 121]+0.003*[# 147]+
          +0.003*[# 200]+0.002*[# 174]+0.002*[# 226]+0.002*[# 252]+0.002*[# 158]+
          +0.002*[# 161]+0.001*[#  93]+0.001*[#   5]+0.001*[#  31]+0.001*[#  54]+
          +0.001*[# 107]+0.001*[# 133]+0.001*[#  58]+0.001*[# 197]+0.001*[# 225]+
          +0.001*[# 251]+
    |psi|^2 = 1.000
     e =   -49.07582 eV
     psi = 0.165*[# 134]+0.165*[# 108]+0.128*[# 172]+0.074*[#  81]+0.056*[#  68]+
          +0.037*[# 185]+0.036*[# 122]+0.036*[# 148]+0.033*[# 121]+0.033*[# 147]+
          +0.032*[#  57]+0.026*[#  70]+0.021*[# 120]+0.021*[# 146]+0.018*[# 109]+
          +0.018*[# 135]+0.016*[# 200]+0.015*[# 159]+0.009*[#  94]+0.008*[# 187]+
          +0.004*[# 225]+0.004*[# 251]+0.004*[# 111]+0.004*[# 137]+0.003*[#  55]+
          +0.002*[#  17]+0.002*[#  43]+0.002*[# 171]+0.002*[#  80]+0.002*[#  96]+
          +0.002*[# 161]+0.002*[# 198]+0.001*[# 124]+0.001*[# 150]+0.001*[#  67]+
          +0.001*[#  71]+0.001*[# 184]+
    |psi|^2 = 1.000
     e =   -49.02068 eV
     psi = 0.166*[# 107]+0.166*[# 133]+0.135*[# 120]+0.135*[# 146]+0.071*[# 198]+
          +0.059*[#  68]+0.053*[#  55]+0.052*[# 185]+0.039*[# 159]+0.034*[# 172]+
          +0.024*[#  94]+0.023*[#  81]+0.006*[# 108]+0.006*[# 134]+0.004*[#  57]+
          +0.004*[#  70]+0.003*[# 121]+0.003*[# 147]+0.001*[#  83]+
    |psi|^2 = 1.000
     e =   -49.00638 eV
     psi = 0.125*[# 121]+0.125*[# 147]+0.115*[#  69]+0.101*[#  56]+0.097*[# 108]+
          +0.097*[# 134]+0.071*[# 173]+0.071*[# 160]+0.060*[# 199]+0.046*[# 186]+
          +0.036*[#  82]+0.033*[#  95]+0.002*[# 120]+0.002*[# 146]+0.002*[# 225]+
          +0.002*[# 251]+0.001*[#   4]+0.001*[#  17]+0.001*[#  30]+0.001*[#  43]+
    |psi|^2 = 1.000
     e =   -49.00487 eV
     psi = 0.138*[# 135]+0.137*[# 109]+0.125*[# 174]+0.095*[# 161]+0.089*[#  96]+
          +0.077*[# 122]+0.077*[# 148]+0.065*[#  70]+0.062*[#  83]+0.054*[#  57]+
          +0.030*[# 200]+0.020*[# 187]+0.003*[# 226]+0.003*[# 252]+0.002*[#  68]+
          +0.002*[#  81]+0.002*[#  94]+0.002*[#  55]+0.002*[#  18]+0.002*[#  44]+
          +0.002*[# 159]+0.001*[# 172]+
    |psi|^2 = 1.000
     e =   -48.97743 eV
     psi = 0.278*[#  83]+0.226*[#  96]+0.214*[# 174]+0.209*[# 161]+0.008*[# 187]+
          +0.007*[#  57]+0.006*[# 200]+0.002*[# 224]+0.002*[# 250]+0.002*[#  70]+
          +0.002*[# 119]+0.002*[# 145]+0.001*[#   3]+0.001*[#  29]+0.001*[#   4]+
          +0.001*[#  16]+0.001*[#  30]+0.001*[#  42]+0.001*[# 106]+0.001*[# 132]+
          +0.001*[# 225]+0.001*[# 251]+0.001*[#  17]+0.001*[#  43]+0.001*[# 121]+
          +0.001*[# 147]+
    |psi|^2 = 1.000
     e =   -48.97167 eV
     psi = 0.204*[#  82]+0.157*[# 199]+0.139*[# 173]+0.128*[#  95]+0.099*[# 160]+
          +0.086*[#  56]+0.080*[# 186]+0.049*[#  69]+0.003*[# 224]+0.003*[# 250]+
          +0.002*[# 106]+0.002*[# 107]+0.002*[# 132]+0.002*[# 133]+0.002*[# 119]+
          +0.002*[# 145]+0.002*[#  16]+0.002*[#  42]+0.002*[#   3]+0.002*[#  29]+
          +0.002*[# 121]+0.002*[# 147]+0.001*[#  19]+0.001*[#  45]+0.001*[#  59]+
          +0.001*[# 214]+0.001*[# 240]+0.001*[#   6]+0.001*[#  32]+0.001*[#  72]+
          +0.001*[# 189]+0.001*[# 211]+0.001*[# 227]+0.001*[# 237]+0.001*[# 253]+
    |psi|^2 = 1.000
     e =   -48.96000 eV
     psi = 0.200*[#  95]+0.194*[# 160]+0.122*[# 173]+0.110*[#  82]+0.100*[# 186]+
          +0.097*[#  69]+0.077*[#  56]+0.063*[# 199]+0.006*[# 226]+0.006*[# 252]+
          +0.003*[#   5]+0.003*[#  18]+0.003*[#  31]+0.003*[#  44]+0.001*[# 213]+
          +0.001*[# 239]+
    |psi|^2 = 1.000
     e =   -48.94216 eV
     psi = 0.318*[# 200]+0.208*[#  70]+0.197*[#  57]+0.191*[# 187]+0.015*[# 174]+
          +0.008*[#  96]+0.005*[#  83]+0.004*[# 198]+0.004*[# 107]+0.003*[# 108]+
          +0.003*[# 133]+0.003*[# 134]+0.003*[# 225]+0.003*[# 251]+0.002*[#   4]+
          +0.002*[#  30]+0.001*[#  17]+0.001*[#  43]+0.001*[#  55]+0.001*[# 224]+
          +0.001*[# 250]+
    |psi|^2 = 1.000
     e =   -48.93188 eV
     psi = 0.266*[# 146]+0.266*[# 120]+0.216*[# 133]+0.215*[# 107]+0.005*[#  82]+
          +0.005*[#  95]+0.003*[#  69]+0.003*[#  56]+0.002*[# 123]+0.002*[# 149]+
          +0.002*[# 121]+0.002*[# 147]+0.001*[# 108]+0.001*[# 134]+
    |psi|^2 = 1.000
     e =   -48.92381 eV
     psi = 0.259*[# 161]+0.224*[# 174]+0.224*[#  96]+0.189*[#  83]+0.028*[# 159]+
          +0.012*[# 198]+0.009*[# 172]+0.008*[# 187]+0.007*[#  94]+0.005*[#  57]+
          +0.004*[# 164]+0.004*[# 177]+0.003*[#  99]+0.003*[# 122]+0.003*[#  86]+
          +0.003*[# 148]+0.002*[# 185]+0.001*[# 200]+0.001*[#  55]+
    |psi|^2 = 1.000
     e =   -48.91721 eV
     psi = 0.283*[# 159]+0.206*[# 198]+0.188*[#  94]+0.095*[#  55]+0.058*[#  96]+
          +0.048*[#  57]+0.041*[#  83]+0.018*[#  70]+0.015*[#  81]+0.010*[#  68]+
          +0.005*[# 187]+0.003*[# 120]+0.003*[# 146]+0.002*[# 106]+0.002*[# 132]+
          +0.001*[#  86]+0.001*[#  99]+0.001*[# 119]+0.001*[# 145]+0.001*[# 172]+
    |psi|^2 = 1.000
     e =   -48.91565 eV
     psi = 0.267*[#  56]+0.262*[#  69]+0.208*[#  82]+0.196*[#  95]+0.021*[# 199]+
          +0.019*[# 186]+0.005*[#  85]+0.005*[#  59]+0.005*[#  72]+0.005*[#  98]+
          +0.003*[# 173]+0.002*[# 160]+
    |psi|^2 = 1.000
     e =   -48.91450 eV
     psi = 0.215*[# 172]+0.177*[#  81]+0.132*[#  57]+0.127*[#  70]+0.073*[# 185]+
          +0.069*[#  83]+0.053*[#  68]+0.046*[#  96]+0.023*[# 161]+0.020*[# 174]+
          +0.009*[#  94]+0.006*[#  55]+0.004*[# 159]+0.004*[# 198]+0.003*[# 122]+
          +0.003*[# 148]+0.003*[# 187]+0.003*[#  60]+0.003*[#  73]+0.002*[#  86]+
          +0.002*[# 200]+0.001*[#  99]+0.001*[# 120]+0.001*[# 146]+0.001*[# 106]+
    |psi|^2 = 1.000
     e =   -48.91246 eV
     psi = 0.425*[# 199]+0.285*[# 173]+0.094*[#  69]+0.087*[#  95]+0.024*[#  56]+
          +0.020*[#  82]+0.019*[# 186]+0.015*[# 160]+0.007*[# 176]+0.007*[# 202]+
          +0.002*[#  98]+0.002*[#  72]+0.001*[# 121]+0.001*[# 147]+0.001*[# 225]+
          +0.001*[# 251]+
    |psi|^2 = 1.000
     e =   -48.90896 eV
     psi = 0.206*[# 172]+0.161*[#  57]+0.157*[#  70]+0.110*[#  81]+0.081*[# 185]+
          +0.050*[# 161]+0.048*[# 198]+0.047*[# 159]+0.044*[# 174]+0.020*[#  68]+
          +0.019*[#  96]+0.018*[#  83]+0.011*[#  94]+0.004*[#  55]+0.003*[#  60]+
          +0.003*[#  73]+0.002*[# 109]+0.002*[# 135]+0.001*[# 164]+0.001*[# 177]+
    |psi|^2 = 1.000
     e =   -48.90529 eV
     psi = 0.438*[# 186]+0.247*[# 160]+0.106*[#  56]+0.090*[#  82]+0.056*[#  69]+
          +0.021*[#  95]+0.007*[# 163]+0.005*[# 189]+0.004*[# 173]+0.003*[# 108]+
          +0.003*[# 134]+0.002*[#  85]+0.002*[# 199]+0.002*[#  59]+0.002*[# 225]+
          +0.002*[# 251]+
    |psi|^2 = 1.000
     e =   -48.88797 eV
     psi = 0.219*[# 147]+0.219*[# 121]+0.184*[# 134]+0.183*[# 108]+0.043*[# 122]+
          +0.043*[# 148]+0.029*[# 109]+0.029*[# 135]+0.011*[#  56]+0.005*[#  95]+
          +0.005*[# 124]+0.005*[# 150]+0.004*[# 111]+0.004*[# 137]+0.002*[# 120]+
          +0.002*[# 146]+0.002*[#  69]+0.001*[#  82]+0.001*[# 107]+0.001*[# 133]+
          +0.001*[# 125]+0.001*[# 151]+
    |psi|^2 = 1.000
     e =   -48.88734 eV
     psi = 0.243*[# 122]+0.243*[# 148]+0.157*[# 109]+0.157*[# 135]+0.040*[# 121]+
          +0.040*[# 147]+0.034*[# 108]+0.034*[# 134]+0.010*[#  69]+0.006*[#  82]+
          +0.006*[# 125]+0.006*[# 151]+0.003*[# 186]+0.003*[# 112]+0.003*[# 138]+
          +0.003*[#  56]+0.003*[# 173]+0.002*[# 160]+0.002*[# 199]+
    |psi|^2 = 1.000
     e =   -48.88188 eV
     psi = 0.342*[# 187]+0.285*[# 200]+0.069*[#  94]+0.066*[#  70]+0.037*[#  83]+
          +0.029*[# 198]+0.028*[#  96]+0.025*[#  81]+0.019*[#  57]+0.014*[# 161]+
          +0.013*[# 174]+0.010*[#  68]+0.009*[# 159]+0.008*[# 135]+0.007*[# 109]+
          +0.006*[# 203]+0.005*[# 190]+0.004*[# 185]+0.003*[# 148]+0.002*[# 122]+
          +0.001*[# 121]+0.001*[# 147]+
    |psi|^2 = 1.000
     e =   -48.87439 eV
     psi = 0.267*[#  68]+0.235*[#  94]+0.140*[# 198]+0.111*[# 172]+0.060*[#  81]+
          +0.052*[#  55]+0.042*[# 187]+0.037*[# 200]+0.010*[#  57]+0.008*[#  70]+
          +0.005*[# 159]+0.003*[# 161]+0.002*[#  97]+0.002*[# 175]+0.002*[# 174]+
          +0.002*[#  71]+0.002*[# 109]+0.002*[# 135]+0.002*[# 201]+0.002*[#  96]+
          +0.001*[# 185]+
    |psi|^2 = 1.000
     e =   -48.87098 eV
     psi = 0.365*[#  55]+0.228*[# 159]+0.219*[# 198]+0.045*[#  94]+0.035*[#  68]+
          +0.015*[#  81]+0.012*[# 172]+0.008*[#  96]+0.006*[#  57]+0.006*[# 187]+
          +0.006*[# 122]+0.006*[# 148]+0.004*[# 200]+0.004*[# 162]+0.003*[# 121]+
          +0.003*[# 147]+0.003*[# 226]+0.003*[# 252]+0.002*[#  58]+0.002*[#  83]+
          +0.001*[# 201]+0.001*[#  18]+0.001*[#  44]+0.001*[# 225]+0.001*[# 251]+
          +0.001*[# 185]+
    |psi|^2 = 1.000
     e =   -48.86106 eV
     psi = 0.452*[# 185]+0.189*[#  68]+0.177*[#  81]+0.058*[# 172]+0.021*[#  94]+
          +0.020*[#  55]+0.011*[# 198]+0.010*[# 159]+0.006*[#  70]+0.004*[# 200]+
          +0.003*[#  84]+0.003*[#  83]+0.003*[# 188]+0.002*[# 187]+0.002*[# 121]+
          +0.002*[# 147]+0.002*[# 226]+0.002*[# 252]+0.001*[# 109]+0.001*[# 135]+
          +0.001*[# 175]+0.001*[# 225]+0.001*[# 251]+0.001*[# 174]+0.001*[#  17]+
          +0.001*[#  18]+0.001*[#  43]+0.001*[#  44]+0.001*[# 122]+0.001*[# 148]+
    |psi|^2 = 1.000
     e =   -48.81435 eV
     psi = 0.140*[# 146]+0.140*[# 120]+0.084*[#  83]+0.080*[# 161]+0.078*[#  96]+
          +0.075*[# 174]+0.065*[#  81]+0.059*[# 121]+0.059*[# 147]+0.048*[#  94]+
          +0.021*[# 134]+0.021*[# 108]+0.017*[# 172]+0.015*[# 159]+0.015*[# 185]+
          +0.014*[# 107]+0.014*[# 133]+0.010*[#  55]+0.008*[# 198]+0.005*[#  68]+
          +0.002*[# 110]+0.002*[# 123]+0.002*[# 136]+0.002*[# 149]+0.002*[#  86]+
          +0.002*[# 164]+0.002*[# 177]+0.001*[#  57]+0.001*[#  99]+
    |psi|^2 = 1.000
     e =   -48.80769 eV
     psi = 0.102*[# 147]+0.102*[# 121]+0.099*[#  57]+0.094*[# 200]+0.085*[# 187]+
          +0.071*[#  55]+0.060*[# 146]+0.059*[# 120]+0.051*[#  70]+0.051*[# 108]+
          +0.050*[# 134]+0.036*[#  68]+0.021*[# 161]+0.017*[#  96]+0.016*[# 185]+
          +0.012*[# 198]+0.009*[# 172]+0.007*[#  81]+0.006*[# 159]+0.006*[# 122]+
          +0.006*[# 148]+0.004*[# 174]+0.003*[#  83]+0.002*[#  60]+0.002*[# 124]+
          +0.002*[# 150]+0.001*[# 203]+0.001*[#   4]+0.001*[#  30]+0.001*[# 109]+
          +0.001*[# 135]+0.001*[# 190]+
    |psi|^2 = 1.000
     e =   -48.80647 eV
     psi = 0.169*[# 135]+0.168*[# 109]+0.120*[#  56]+0.092*[# 173]+0.089*[# 199]+
          +0.067*[#  82]+0.054*[# 122]+0.054*[# 148]+0.031*[# 107]+0.031*[# 133]+
          +0.024*[# 160]+0.018*[#  95]+0.016*[# 120]+0.016*[# 146]+0.008*[#  69]+
          +0.008*[# 186]+0.003*[# 112]+0.003*[# 138]+0.002*[#  59]+0.002*[# 176]+
          +0.002*[# 108]+0.002*[# 134]+0.002*[# 202]+0.001*[#  85]+0.001*[# 121]+
          +0.001*[# 147]+0.001*[# 226]+0.001*[# 252]+
    |psi|^2 = 1.000
     e =   -48.80558 eV
     psi = 0.148*[# 133]+0.147*[# 107]+0.108*[# 160]+0.093*[# 186]+0.089*[#  69]+
          +0.083*[#  95]+0.081*[# 120]+0.080*[# 146]+0.033*[# 109]+0.033*[# 135]+
          +0.016*[# 173]+0.013*[#  82]+0.012*[#  56]+0.011*[# 148]+0.011*[# 122]+
          +0.009*[# 199]+0.004*[# 110]+0.004*[# 136]+0.003*[# 123]+0.003*[# 149]+
          +0.002*[# 163]+0.002*[#  72]+0.002*[#  98]+0.001*[# 189]+
    |psi|^2 = 1.000
     e =   -48.79757 eV
     psi = 0.189*[# 122]+0.189*[# 148]+0.092*[# 187]+0.053*[#  70]+0.048*[#  68]+
          +0.045*[# 200]+0.045*[#  94]+0.042*[#  83]+0.040*[# 174]+0.033*[#  57]+
          +0.027*[#  96]+0.026*[# 109]+0.026*[# 135]+0.024*[# 161]+0.023*[# 185]+
          +0.020*[#  55]+0.016*[# 159]+0.014*[#  81]+0.004*[# 125]+0.004*[# 151]+
          +0.003*[# 198]+0.002*[# 120]+0.002*[# 146]+0.002*[# 108]+0.002*[# 172]+
          +0.002*[# 107]+0.002*[# 133]+0.002*[# 190]+0.002*[#   5]+0.002*[#  31]+
          +0.002*[# 134]+0.001*[#  73]+0.001*[# 147]+0.001*[# 203]+0.001*[#  86]+
          +0.001*[# 121]+
    |psi|^2 = 1.000
     e =   -48.79577 eV
     psi = 0.168*[# 134]+0.167*[# 108]+0.099*[# 121]+0.098*[# 147]+0.072*[# 186]+
          +0.070*[# 173]+0.062*[#  69]+0.060*[#  82]+0.050*[# 160]+0.043*[#  56]+
          +0.040*[#  95]+0.037*[# 199]+0.004*[# 111]+0.004*[# 137]+0.002*[# 135]+
          +0.002*[# 109]+0.002*[# 124]+0.002*[# 150]+0.002*[#  85]+0.002*[# 189]+
          +0.002*[# 176]+0.001*[#  72]+0.001*[#  98]+0.001*[# 163]+
    |psi|^2 = 1.000
     e =   -48.79203 eV
     psi = 0.210*[# 107]+0.209*[# 133]+0.100*[#  81]+0.065*[# 172]+0.059*[#  94]+
          +0.047*[# 159]+0.046*[# 187]+0.028*[#  55]+0.023*[#  70]+0.022*[# 161]+
          +0.022*[# 198]+0.022*[# 200]+0.020*[# 185]+0.018*[#  57]+0.016*[#  96]+
          +0.016*[# 174]+0.011*[#  83]+0.009*[# 147]+0.008*[#  68]+0.008*[# 121]+
          +0.005*[# 134]+0.004*[# 108]+0.002*[# 122]+0.002*[# 148]+0.002*[# 110]+
          +0.002*[# 123]+0.002*[# 136]+0.002*[# 149]+0.002*[# 224]+0.002*[# 250]+
          +0.001*[#  15]+0.001*[#  41]+0.001*[# 223]+0.001*[# 249]+
    |psi|^2 = 1.000
     e =   -48.77601 eV
     psi = 0.153*[#  55]+0.131*[# 108]+0.130*[# 134]+0.098*[# 198]+0.092*[#  94]+
          +0.060*[# 159]+0.045*[# 185]+0.041*[#  68]+0.035*[# 121]+0.035*[# 147]+
          +0.028*[# 109]+0.028*[# 135]+0.021*[# 200]+0.015*[#  81]+0.010*[#  57]+
          +0.009*[# 172]+0.008*[# 161]+0.007*[# 107]+0.007*[# 133]+0.004*[#  96]+
          +0.003*[#  58]+0.003*[#  97]+0.002*[# 187]+0.002*[# 201]+0.002*[# 162]+
          +0.002*[# 111]+0.002*[# 225]+0.002*[# 251]+0.002*[# 137]+0.001*[#  17]+
          +0.001*[#  43]+0.001*[#  20]+0.001*[#  46]+0.001*[# 228]+0.001*[# 254]+
    |psi|^2 = 1.000
     e =   -48.76924 eV
     psi = 0.185*[# 109]+0.185*[# 135]+0.129*[# 185]+0.109*[#  68]+0.074*[#  81]+
          +0.056*[# 172]+0.037*[# 187]+0.024*[#  94]+0.018*[# 159]+0.018*[# 108]+
          +0.018*[# 134]+0.014*[#  55]+0.013*[#  70]+0.012*[# 174]+0.010*[# 198]+
          +0.008*[# 161]+0.008*[# 200]+0.007*[#  83]+0.007*[# 122]+0.007*[# 148]+
          +0.005*[#  96]+0.004*[# 121]+0.004*[# 147]+0.003*[#  57]+0.003*[# 112]+
          +0.003*[# 138]+0.003*[#  71]+0.003*[# 107]+0.003*[# 133]+0.003*[# 188]+
          +0.002*[#  84]+0.002*[# 175]+0.002*[# 226]+0.002*[# 252]+0.001*[#  18]+
          +0.001*[#  44]+
    |psi|^2 = 1.000
     e =   -15.15303 eV
     psi = 0.733*[# 261]+0.135*[# 266]+0.024*[# 264]+0.014*[# 214]+0.014*[# 240]+
          +0.012*[# 210]+0.012*[# 236]+0.011*[# 215]+0.011*[# 241]+0.005*[# 218]+
          +0.005*[# 244]+0.002*[# 175]+0.002*[# 162]+0.001*[# 220]+0.001*[# 246]+
    |psi|^2 = 0.995
     e =    -3.00089 eV
     psi = 0.139*[# 264]+0.109*[# 262]+0.048*[# 266]+0.038*[# 158]+0.036*[# 210]+
          +0.036*[# 236]+0.035*[# 197]+0.034*[# 184]+0.033*[# 119]+0.033*[# 145]+
          +0.033*[# 106]+0.033*[# 132]+0.033*[# 171]+0.026*[#  54]+0.025*[#  67]+
          +0.025*[#  80]+0.025*[#  93]+0.021*[# 223]+0.021*[# 249]+0.012*[#   2]+
          +0.012*[#  15]+0.012*[#  28]+0.012*[#  41]+0.007*[# 261]+0.006*[# 227]+
          +0.006*[# 253]+0.006*[# 265]+0.005*[# 157]+0.005*[# 218]+0.005*[# 244]+
          +0.005*[#   6]+0.005*[#  19]+0.005*[#  32]+0.005*[#  45]+0.005*[# 105]+
          +0.005*[# 131]+0.004*[# 118]+0.004*[# 144]+0.005*[# 170]+0.004*[# 220]+
          +0.004*[# 246]+0.004*[# 183]+0.004*[# 214]+0.004*[# 240]+0.004*[# 196]+
          +0.003*[#  53]+0.003*[#  58]+0.003*[#  66]+0.003*[#  71]+0.003*[#  79]+
          +0.003*[#  92]+0.003*[#  84]+0.003*[#  97]+0.002*[# 209]+0.002*[# 215]+
          +0.002*[# 235]+0.002*[# 241]+0.002*[# 222]+0.002*[# 248]+0.001*[# 216]+
          +0.001*[# 219]+0.001*[# 242]+0.001*[# 245]+0.001*[# 221]+0.001*[# 247]+
    |psi|^2 = 0.995
     e =    -2.70126 eV
     psi = 0.259*[# 264]+0.132*[# 262]+0.094*[# 266]+0.028*[# 261]+0.022*[#  67]+
          +0.022*[#  80]+0.022*[#  93]+0.022*[#  54]+0.022*[# 106]+0.022*[# 119]+
          +0.022*[# 132]+0.022*[# 145]+0.015*[# 171]+0.012*[#  15]+0.012*[#  41]+
          +0.012*[#   2]+0.012*[#  28]+0.012*[# 218]+0.012*[# 244]+0.011*[# 158]+
          +0.011*[# 184]+0.009*[# 220]+0.009*[# 246]+0.009*[# 197]+0.009*[# 223]+
          +0.009*[# 249]+0.009*[# 162]+0.008*[# 214]+0.008*[# 240]+0.007*[# 265]+
          +0.006*[# 188]+0.004*[# 201]+0.004*[# 215]+0.004*[# 241]+0.004*[#   6]+
          +0.004*[#  19]+0.004*[#  32]+0.004*[#  45]+0.004*[# 118]+0.004*[# 144]+
          +0.003*[# 175]+0.003*[#  53]+0.003*[#  66]+0.003*[# 105]+0.003*[# 131]+
          +0.003*[#  79]+0.003*[#  92]+0.003*[# 216]+0.003*[# 219]+0.003*[# 242]+
          +0.003*[# 245]+0.003*[# 221]+0.003*[# 247]+0.002*[# 196]+0.002*[# 170]+
          +0.002*[# 227]+0.002*[# 253]+0.001*[# 110]+0.001*[# 136]+0.001*[# 183]+
          +0.001*[# 229]+0.001*[# 255]+0.001*[# 203]+0.001*[# 157]+
    |psi|^2 = 0.994
     e =    -1.55096 eV
     psi = 0.079*[# 265]+0.057*[# 223]+0.057*[# 249]+0.047*[# 123]+0.047*[# 149]+
          +0.041*[# 110]+0.041*[# 136]+0.028*[# 175]+0.026*[#   2]+0.026*[#  28]+
          +0.026*[#  15]+0.026*[#  41]+0.024*[# 162]+0.022*[#  93]+0.022*[#  54]+
          +0.022*[#  80]+0.021*[#  67]+0.021*[# 264]+0.020*[# 188]+0.019*[# 201]+
          +0.017*[# 171]+0.016*[# 158]+0.016*[# 184]+0.015*[# 210]+0.015*[# 236]+
          +0.013*[# 261]+0.013*[# 197]+0.012*[#  71]+0.012*[#  58]+0.012*[#  84]+
          +0.011*[#  97]+0.007*[# 222]+0.007*[# 248]+0.006*[# 231]+0.006*[# 257]+
          +0.006*[# 233]+0.006*[# 259]+0.005*[#  79]+0.005*[#  92]+0.005*[#  53]+
          +0.005*[#  66]+0.004*[# 266]+0.004*[# 170]+0.004*[#   1]+0.004*[#  14]+
          +0.004*[#  27]+0.004*[#  40]+0.004*[# 157]+0.003*[# 196]+0.003*[# 209]+
          +0.003*[# 235]+0.003*[# 183]+0.003*[# 228]+0.003*[# 254]+0.003*[# 214]+
          +0.003*[# 240]+0.003*[# 217]+0.003*[# 243]+0.002*[#  74]+0.002*[#  61]+
          +0.002*[#  87]+0.002*[# 100]+0.002*[# 204]+0.002*[#   6]+0.002*[#  19]+
          +0.002*[#  32]+0.002*[#  45]+0.002*[# 191]+0.002*[# 230]+0.002*[# 256]+
          +0.001*[# 120]+0.001*[# 146]+0.001*[# 190]+0.001*[# 203]+0.001*[# 220]+
          +0.001*[# 246]+0.001*[# 107]+0.001*[# 133]+0.001*[# 165]+0.001*[# 218]+
          +0.001*[# 244]+0.001*[# 262]+
    |psi|^2 = 0.996
     e =    -0.36160 eV
     psi = 0.173*[# 265]+0.042*[# 231]+0.042*[# 257]+0.041*[# 233]+0.041*[# 259]+
          +0.026*[#  97]+0.026*[# 223]+0.026*[# 249]+0.025*[#  84]+0.025*[#  58]+
          +0.025*[#  71]+0.019*[#  15]+0.019*[#  41]+0.017*[#   2]+0.017*[#  28]+
          +0.017*[# 227]+0.017*[# 253]+0.015*[# 110]+0.015*[# 136]+0.014*[# 178]+
          +0.013*[# 165]+0.013*[# 175]+0.013*[# 162]+0.011*[# 217]+0.011*[# 243]+
          +0.010*[# 158]+0.010*[# 171]+0.010*[# 262]+0.009*[# 123]+0.009*[# 149]+
          +0.009*[# 230]+0.009*[# 256]+0.008*[# 228]+0.008*[# 254]+0.008*[# 188]+
          +0.008*[# 201]+0.006*[# 119]+0.006*[# 145]+0.006*[# 214]+0.006*[# 240]+
          +0.006*[# 126]+0.006*[# 152]+0.006*[# 106]+0.006*[# 132]+0.005*[# 190]+
          +0.005*[# 203]+0.005*[#  54]+0.005*[#  67]+0.004*[# 194]+0.004*[# 207]+
          +0.004*[# 167]+0.004*[# 193]+0.004*[#   9]+0.004*[#  35]+0.004*[# 180]+
          +0.004*[# 206]+0.004*[# 197]+0.004*[#  22]+0.004*[#  48]+0.003*[# 184]+
          +0.003*[# 164]+0.003*[# 177]+0.003*[#  80]+0.003*[#  93]+0.002*[# 105]+
          +0.002*[# 131]+0.002*[#   1]+0.002*[#  14]+0.002*[#  27]+0.002*[#  40]+
          +0.002*[# 261]+0.002*[# 183]+0.002*[# 191]+0.002*[#  61]+0.002*[#  74]+
          +0.002*[# 157]+0.002*[# 196]+0.002*[# 204]+0.002*[# 218]+0.002*[# 244]+
          +0.002*[# 170]+0.001*[# 118]+0.001*[# 144]+0.001*[#  87]+0.001*[# 100]+
          +0.001*[# 113]+0.001*[# 139]+
    |psi|^2 = 0.994
     e =    -0.18803 eV
     psi = 0.590*[# 263]+0.059*[# 217]+0.059*[# 243]+0.046*[# 218]+0.046*[# 244]+
          +0.033*[# 210]+0.033*[# 236]+0.013*[# 195]+0.011*[# 208]+0.009*[# 189]+
          +0.007*[# 163]+0.007*[# 202]+0.007*[# 176]+0.005*[# 113]+0.005*[# 139]+
          +0.005*[# 169]+0.005*[# 214]+0.005*[# 240]+0.005*[# 182]+0.004*[# 233]+
          +0.004*[# 259]+0.002*[# 106]+0.002*[# 132]+0.003*[# 192]+0.001*[# 205]+
          +0.001*[# 110]+0.001*[# 136]+0.001*[# 219]+0.001*[# 223]+0.001*[# 245]+
          +0.001*[# 249]+0.001*[#  65]+0.001*[#  78]+0.001*[#  91]+0.001*[# 104]+
    |psi|^2 = 0.998
     e =     0.04118 eV
     psi = 0.229*[# 262]+0.162*[# 264]+0.039*[# 220]+0.039*[# 246]+0.036*[# 221]+
          +0.036*[# 247]+0.025*[# 219]+0.025*[# 245]+0.023*[# 178]+0.023*[# 217]+
          +0.023*[# 243]+0.018*[# 261]+0.014*[# 265]+0.013*[# 193]+0.012*[# 233]+
          +0.012*[# 259]+0.012*[# 180]+0.011*[# 234]+0.011*[# 260]+0.011*[# 210]+
          +0.011*[# 236]+0.010*[# 218]+0.010*[# 244]+0.010*[# 167]+0.009*[# 206]+
          +0.008*[# 232]+0.008*[# 258]+0.007*[# 197]+0.006*[# 184]+0.006*[# 207]+
          +0.004*[# 223]+0.004*[# 249]+0.004*[# 115]+0.004*[# 128]+0.004*[# 141]+
          +0.004*[# 154]+0.004*[#  67]+0.004*[# 175]+0.003*[# 168]+0.003*[# 181]+
          +0.003*[# 216]+0.003*[# 242]+0.003*[# 130]+0.003*[# 156]+0.003*[# 190]+
          +0.003*[# 165]+0.003*[# 203]+0.003*[# 214]+0.002*[#  87]+0.003*[# 240]+
          +0.002*[# 117]+0.002*[# 143]+0.002*[#  64]+0.002*[#  97]+0.002*[# 106]+
          +0.002*[# 132]+0.002*[# 177]+0.002*[# 188]+0.002*[# 191]+0.002*[#  58]+
          +0.002*[# 103]+0.002*[# 231]+0.002*[# 257]+0.001*[# 129]+0.001*[# 155]+
          +0.001*[# 164]+0.001*[#   2]+0.001*[#  11]+0.001*[#  24]+0.001*[#  28]+
          +0.001*[#  37]+0.001*[#  50]+
    |psi|^2 = 0.997
     e =     0.20126 eV
     psi = 0.061*[# 127]+0.061*[# 153]+0.059*[#  90]+0.059*[# 114]+0.059*[# 140]+
          +0.047*[# 103]+0.040*[#  23]+0.040*[#  49]+0.039*[#  10]+0.039*[#  36]+
          +0.037*[# 181]+0.033*[#  77]+0.031*[# 168]+0.028*[#  93]+0.024*[#  54]+
          +0.024*[#  64]+0.022*[#  80]+0.018*[#  67]+0.017*[# 231]+0.017*[# 257]+
          +0.014*[# 218]+0.014*[# 244]+0.012*[# 197]+0.011*[# 158]+0.010*[# 100]+
          +0.010*[# 194]+0.010*[# 165]+0.009*[# 184]+0.009*[# 171]+0.008*[#  87]+
          +0.007*[# 178]+0.007*[#   7]+0.007*[#  20]+0.007*[#  33]+0.007*[#  46]+
          +0.007*[# 207]+0.004*[# 228]+0.004*[# 254]+0.004*[#  61]+0.003*[# 162]+
          +0.003*[# 215]+0.003*[# 241]+0.003*[#  74]+0.003*[#  97]+0.003*[# 175]+
          +0.003*[# 204]+0.003*[#  84]+0.002*[# 191]+0.002*[# 113]+0.002*[# 126]+
          +0.002*[# 139]+0.002*[# 152]+0.002*[# 129]+0.002*[# 155]+0.002*[# 116]+
          +0.002*[# 142]+0.001*[# 111]+0.001*[# 124]+0.001*[# 137]+0.001*[# 150]+
          +0.001*[# 220]+0.001*[# 233]+0.001*[# 246]+0.001*[# 259]+
    |psi|^2 = 0.998
     e =     0.21521 eV
     psi = 0.059*[# 128]+0.059*[# 154]+0.058*[# 115]+0.058*[# 141]+0.049*[# 103]+
          +0.044*[#  64]+0.043*[#  11]+0.043*[#  24]+0.043*[#  37]+0.043*[#  50]+
          +0.042*[#  77]+0.037*[#  90]+0.029*[#  80]+0.024*[#  67]+0.024*[#  93]+
          +0.022*[#  54]+0.020*[# 168]+0.016*[# 194]+0.015*[# 207]+0.013*[# 171]+
          +0.012*[# 262]+0.012*[# 264]+0.012*[# 232]+0.012*[# 258]+0.011*[# 181]+
          +0.011*[# 158]+0.009*[# 191]+0.009*[#  74]+0.008*[# 184]+0.008*[#   8]+
          +0.008*[#  21]+0.008*[#  34]+0.008*[#  47]+0.008*[# 219]+0.008*[# 245]+
          +0.006*[#  61]+0.006*[# 197]+0.005*[#  87]+0.005*[# 100]+0.005*[# 229]+
          +0.005*[# 255]+0.005*[# 216]+0.005*[# 242]+0.005*[# 204]+0.004*[# 165]+
          +0.003*[# 220]+0.003*[# 246]+0.003*[# 221]+0.003*[# 247]+0.003*[# 217]+
          +0.003*[# 243]+0.002*[# 112]+0.002*[# 138]+0.002*[# 175]+0.002*[# 125]+
          +0.002*[# 151]+0.002*[# 193]+0.002*[# 167]+0.002*[# 180]+0.002*[# 178]+
          +0.001*[# 206]+0.001*[# 261]+
    |psi|^2 = 0.998
     e =     0.32361 eV
     psi = 0.059*[# 129]+0.059*[# 155]+0.059*[# 116]+0.059*[# 142]+0.048*[# 166]+
          +0.048*[#  62]+0.048*[#  75]+0.048*[# 179]+0.047*[#  88]+0.047*[# 101]+
          +0.045*[# 192]+0.044*[# 205]+0.042*[# 119]+0.042*[# 145]+0.026*[# 106]+
          +0.026*[# 132]+0.015*[# 163]+0.015*[# 176]+0.014*[#  59]+0.014*[#  72]+
          +0.014*[#  85]+0.014*[#  98]+0.013*[# 189]+0.013*[# 202]+0.011*[#  22]+
          +0.011*[#  48]+0.010*[# 230]+0.010*[# 256]+0.008*[# 113]+0.008*[# 139]+
          +0.004*[#   9]+0.004*[#  35]+0.003*[#  12]+0.003*[#  25]+0.003*[#  38]+
          +0.003*[#  51]+0.002*[# 118]+0.002*[# 144]+0.002*[# 169]+0.002*[# 182]+
          +0.002*[# 220]+0.002*[# 246]+0.002*[# 105]+0.002*[# 131]+0.002*[# 195]+
          +0.002*[# 208]+0.002*[# 210]+0.002*[# 233]+0.002*[# 259]+0.002*[# 217]+
          +0.002*[# 236]+0.002*[# 243]+0.002*[#   2]+0.002*[#  28]+0.002*[# 227]+
          +0.002*[# 253]+0.001*[#  91]+0.001*[#  19]+0.001*[#  45]+0.001*[#  65]+
          +0.001*[#  78]+0.001*[# 104]+
    |psi|^2 = 0.998
     e =     0.33358 eV
     psi = 0.078*[# 116]+0.078*[# 142]+0.045*[#  63]+0.045*[#  76]+0.043*[#  89]+
          +0.043*[# 102]+0.038*[# 167]+0.038*[# 180]+0.036*[# 129]+0.036*[# 155]+
          +0.035*[# 106]+0.035*[# 132]+0.028*[# 206]+0.028*[# 119]+0.028*[# 145]+
          +0.026*[# 193]+0.020*[# 177]+0.019*[# 164]+0.018*[# 190]+0.018*[# 203]+
          +0.014*[#  60]+0.014*[#  73]+0.014*[#  86]+0.014*[#  99]+0.013*[# 113]+
          +0.013*[# 139]+0.011*[# 230]+0.011*[# 256]+0.010*[#  22]+0.010*[#  48]+
          +0.007*[# 262]+0.006*[# 178]+0.006*[# 191]+0.005*[#  51]+0.006*[#  77]+
          +0.006*[# 181]+0.005*[#  25]+0.005*[#   9]+0.005*[#  35]+0.004*[#  74]+
          +0.004*[# 264]+0.003*[# 105]+0.003*[# 131]+0.003*[# 168]+0.003*[# 231]+
          +0.003*[# 257]+0.002*[# 103]+0.002*[#  87]+0.002*[# 204]+0.002*[# 118]+
          +0.002*[# 144]+0.002*[# 165]+0.002*[# 197]+0.002*[# 221]+0.002*[# 247]+
          +0.001*[#   2]+0.001*[#  28]+0.001*[#  93]+0.001*[#  19]+0.001*[#  45]+
          +0.001*[# 100]+
    |psi|^2 = 0.998
     e =     0.36417 eV
     psi = 0.108*[# 168]+0.089*[#  64]+0.072*[# 181]+0.059*[#  77]+0.039*[# 155]+
          +0.038*[# 129]+0.030*[# 124]+0.030*[# 150]+0.029*[# 111]+0.029*[# 137]+
          +0.024*[# 218]+0.024*[# 244]+0.024*[# 231]+0.024*[# 257]+0.021*[# 184]+
          +0.019*[#  10]+0.019*[#  23]+0.019*[#  36]+0.019*[#  49]+0.017*[# 171]+
          +0.016*[#  80]+0.016*[#  67]+0.012*[# 116]+0.012*[# 142]+0.010*[#  12]+
          +0.010*[#  38]+0.009*[# 197]+0.009*[# 233]+0.009*[# 259]+0.008*[# 158]+
          +0.008*[# 220]+0.008*[# 246]+0.007*[#  54]+0.007*[#  25]+0.007*[#  51]+
          +0.007*[#  93]+0.007*[# 228]+0.007*[# 254]+0.005*[# 215]+0.005*[# 241]+
          +0.004*[#   7]+0.004*[#  20]+0.004*[#  33]+0.004*[#  46]+0.002*[# 183]+
          +0.002*[#  66]+0.002*[#  79]+0.002*[# 170]+0.002*[# 207]+0.001*[#  63]+
          +0.001*[#  76]+0.002*[#  89]+0.002*[# 102]+0.001*[# 108]+0.001*[# 121]+
          +0.001*[# 134]+0.001*[# 147]+0.001*[# 106]+0.001*[# 103]+0.001*[# 112]+
          +0.001*[# 125]+0.001*[# 132]+0.001*[# 138]+0.001*[# 151]+0.001*[# 196]+
          +0.001*[# 219]+0.001*[# 245]+0.001*[# 119]+
    |psi|^2 = 0.996
     e =     0.39251 eV
     psi = 0.060*[# 181]+0.055*[# 194]+0.045*[# 158]+0.042*[# 112]+0.042*[# 125]+
          +0.042*[# 138]+0.042*[# 151]+0.040*[# 219]+0.040*[# 245]+0.040*[# 232]+
          +0.040*[# 258]+0.032*[# 207]+0.030*[# 168]+0.029*[#  77]+0.027*[# 171]+
          +0.025*[#  90]+0.023*[# 197]+0.022*[#  54]+0.019*[#  11]+0.019*[#  24]+
          +0.019*[#  37]+0.019*[#  50]+0.013*[# 229]+0.013*[# 255]+0.013*[# 103]+
          +0.012*[# 184]+0.011*[#  67]+0.011*[#  64]+0.011*[# 216]+0.011*[# 242]+
          +0.010*[#  93]+0.005*[#  74]+0.005*[# 191]+0.005*[#   8]+0.005*[#  21]+
          +0.005*[#  34]+0.005*[#  47]+0.004*[# 178]+0.004*[#  80]+0.004*[# 117]+
          +0.004*[# 130]+0.004*[# 143]+0.004*[# 156]+0.004*[# 157]+0.003*[# 196]+
          +0.003*[# 115]+0.003*[# 128]+0.003*[# 141]+0.003*[# 154]+0.003*[# 221]+
          +0.003*[# 247]+0.003*[#  53]+0.002*[#  92]+0.002*[# 170]+0.002*[# 109]+
          +0.002*[# 122]+0.002*[# 135]+0.002*[# 148]+0.002*[#  71]+0.002*[# 234]+
          +0.002*[# 260]+0.002*[# 183]+0.001*[# 218]+0.001*[# 244]+0.001*[# 264]+
          +0.001*[#  66]+0.001*[#  61]+0.001*[#  87]+0.001*[# 111]+0.001*[# 113]+
          +0.001*[# 124]+0.001*[# 137]+0.001*[# 139]+0.001*[# 150]+0.001*[# 262]+
          +0.001*[#  97]+0.001*[# 126]+0.001*[# 152]+
    |psi|^2 = 0.997
     e =     0.42480 eV
     psi = 0.063*[# 126]+0.063*[# 152]+0.061*[# 113]+0.061*[# 139]+0.038*[# 207]+
          +0.034*[# 165]+0.034*[# 103]+0.030*[# 204]+0.028*[# 129]+0.028*[# 155]+
          +0.026*[# 178]+0.026*[#  90]+0.025*[#  61]+0.023*[# 191]+0.021*[# 100]+
          +0.020*[# 194]+0.019*[#  87]+0.017*[#  74]+0.013*[#  84]+0.013*[# 233]+
          +0.013*[# 259]+0.013*[#  97]+0.012*[# 188]+0.012*[# 201]+0.011*[#  58]+
          +0.011*[# 171]+0.010*[# 119]+0.010*[# 145]+0.010*[# 162]+0.010*[# 175]+
          +0.009*[#  71]+0.008*[# 231]+0.009*[# 257]+0.008*[#  12]+0.008*[#  38]+
          +0.006*[# 111]+0.006*[# 124]+0.006*[# 137]+0.006*[# 150]+0.005*[#  67]+
          +0.005*[# 218]+0.005*[# 244]+0.005*[#  10]+0.005*[#  23]+0.005*[#  36]+
          +0.005*[#  49]+0.004*[# 210]+0.004*[# 236]+0.004*[#  25]+0.004*[#  51]+
          +0.004*[# 217]+0.004*[# 243]+0.004*[#  15]+0.004*[#  41]+0.003*[# 181]+
          +0.003*[#   9]+0.003*[#  35]+0.003*[# 265]+0.003*[# 116]+0.003*[# 142]+
          +0.003*[#  63]+0.003*[#  76]+0.003*[# 164]+0.003*[# 190]+0.003*[# 220]+
          +0.003*[# 246]+0.003*[#  77]+0.003*[#  89]+0.003*[# 102]+0.003*[# 177]+
          +0.003*[# 203]+0.002*[#   2]+0.002*[#  28]+0.002*[# 158]+0.002*[#  54]+
          +0.002*[#  80]+0.002*[# 118]+0.002*[# 144]+0.001*[#  93]+0.001*[# 214]+
          +0.001*[# 230]+0.001*[# 240]+0.001*[# 256]+0.001*[# 184]+
    |psi|^2 = 0.995
     e =     0.45705 eV
     psi = 0.052*[# 207]+0.051*[# 194]+0.041*[#  61]+0.038*[# 103]+0.034*[#  90]+
          +0.031*[# 116]+0.031*[# 142]+0.029*[#  74]+0.028*[# 126]+0.028*[# 152]+
          +0.027*[# 204]+0.026*[# 165]+0.025*[# 100]+0.024*[# 113]+0.024*[# 139]+
          +0.023*[#   9]+0.023*[#  35]+0.020*[# 129]+0.020*[# 155]+0.019*[#  22]+
          +0.019*[#  48]+0.018*[#  77]+0.018*[# 191]+0.018*[#  87]+0.016*[#  64]+
          +0.016*[#  25]+0.016*[#  51]+0.014*[# 178]+0.013*[# 217]+0.013*[# 243]+
          +0.013*[#  12]+0.013*[#  38]+0.012*[# 218]+0.012*[# 244]+0.010*[# 230]+
          +0.010*[# 256]+0.009*[# 233]+0.009*[# 259]+0.008*[# 184]+0.008*[# 231]+
          +0.008*[# 257]+0.008*[# 158]+0.007*[# 220]+0.007*[# 246]+0.006*[# 124]+
          +0.006*[# 150]+0.006*[# 111]+0.006*[# 137]+0.004*[# 197]+0.004*[# 171]+
          +0.003*[# 228]+0.003*[# 254]+0.003*[# 215]+0.003*[# 241]+0.002*[#   2]+
          +0.002*[#  28]+0.002*[# 127]+0.002*[# 153]+0.002*[# 114]+0.002*[# 140]+
          +0.002*[#  15]+0.002*[#  41]+0.002*[#  80]+0.002*[# 210]+0.002*[# 236]+
          +0.002*[#   6]+0.002*[#  32]+0.001*[#  19]+0.001*[#  45]+0.001*[# 227]+
          +0.001*[# 253]+0.001*[#  84]+0.001*[# 181]+0.001*[# 240]+
    |psi|^2 = 0.995
     e =     0.47503 eV
     psi = 0.079*[#  91]+0.079*[# 104]+0.075*[#  78]+0.075*[#  65]+0.056*[# 182]+
          +0.055*[# 169]+0.053*[# 126]+0.053*[# 152]+0.042*[# 208]+0.041*[# 195]+
          +0.034*[# 263]+0.028*[# 113]+0.028*[# 139]+0.024*[#   9]+0.024*[#  35]+
          +0.021*[# 106]+0.021*[# 132]+0.018*[#  22]+0.018*[#  48]+0.011*[# 119]+
          +0.011*[# 145]+0.011*[# 230]+0.011*[# 256]+0.010*[# 223]+0.010*[# 249]+
          +0.008*[#  15]+0.008*[#  41]+0.005*[# 214]+0.005*[# 240]+0.004*[# 218]+
          +0.004*[# 244]+0.004*[#   2]+0.004*[#  28]+0.004*[# 192]+0.004*[# 217]+
          +0.004*[# 243]+0.003*[# 166]+0.003*[#   6]+0.003*[#  19]+0.003*[#  32]+
          +0.003*[#  45]+0.003*[# 205]+0.003*[# 179]+0.003*[# 233]+0.003*[# 259]+
          +0.002*[#  62]+0.002*[#  75]+0.002*[#  88]+0.002*[# 227]+0.002*[# 253]+
          +0.002*[# 101]+0.002*[# 220]+0.002*[# 246]+0.001*[# 116]+0.001*[# 129]+
          +0.001*[# 142]+0.001*[# 155]+
    |psi|^2 = 0.999
     e =     0.60113 eV
     psi = 0.082*[# 117]+0.082*[# 143]+0.080*[# 130]+0.080*[# 156]+0.043*[# 100]+
          +0.036*[#  26]+0.036*[#  52]+0.036*[#  13]+0.036*[#  39]+0.034*[#  61]+
          +0.029*[# 178]+0.027*[# 191]+0.027*[# 197]+0.025*[#  74]+0.023*[#  87]+
          +0.019*[# 165]+0.018*[#  93]+0.017*[# 264]+0.016*[#  80]+0.016*[# 204]+
          +0.014*[# 234]+0.014*[# 260]+0.011*[#  67]+0.008*[# 221]+0.008*[# 247]+
          +0.008*[#  54]+0.008*[# 194]+0.007*[# 184]+0.006*[# 175]+0.006*[# 262]+
          +0.005*[#  90]+0.005*[# 171]+0.005*[# 188]+0.005*[# 233]+0.005*[# 259]+
          +0.004*[#  71]+0.004*[#  84]+0.004*[# 181]+0.004*[#  22]+0.004*[#  48]+
          +0.003*[#  64]+0.003*[# 158]+0.003*[# 220]+0.003*[# 246]+0.003*[# 265]+
          +0.003*[# 116]+0.003*[# 142]+0.003*[# 210]+0.003*[# 236]+0.002*[# 261]+
          +0.002*[# 190]+0.002*[# 177]+0.002*[# 216]+0.002*[# 242]+0.002*[# 113]+
          +0.002*[# 125]+0.002*[# 139]+0.002*[# 151]+0.002*[# 164]+0.002*[# 203]+
          +0.002*[# 217]+0.002*[# 243]+0.001*[# 112]+0.001*[# 138]+0.001*[#   9]+
          +0.001*[#  25]+0.001*[#  35]+0.001*[#  51]+0.001*[#   2]+0.001*[#  12]+
          +0.001*[#  28]+0.001*[#  38]+0.001*[# 229]+0.001*[# 255]+0.001*[#  15]+
          +0.001*[#  41]+0.001*[# 119]+0.001*[# 145]+0.001*[# 196]+0.001*[# 214]+
          +0.001*[# 228]+0.001*[# 240]+0.001*[# 254]+0.001*[# 266]+
    |psi|^2 = 0.998
     e =     0.66763 eV
     psi = 0.073*[#  22]+0.073*[#  48]+0.071*[#   9]+0.071*[#  35]+0.065*[#  87]+
          +0.044*[#  74]+0.026*[# 100]+0.024*[# 165]+0.022*[#  58]+0.020*[#  71]+
          +0.020*[# 204]+0.018*[#  97]+0.018*[#   2]+0.018*[#  28]+0.018*[# 184]+
          +0.016*[#  15]+0.016*[#  41]+0.016*[#  61]+0.016*[# 262]+0.015*[#  84]+
          +0.012*[# 103]+0.011*[#  77]+0.010*[#  90]+0.009*[#  12]+0.009*[#  38]+
          +0.009*[# 110]+0.009*[# 136]+0.009*[#  64]+0.009*[# 178]+0.008*[# 123]+
          +0.008*[# 149]+0.008*[#  25]+0.008*[#  51]+0.008*[# 265]+0.007*[# 217]+
          +0.007*[# 243]+0.006*[# 197]+0.006*[#  19]+0.006*[#  45]+0.006*[# 191]+
          +0.006*[# 233]+0.006*[# 259]+0.005*[#   6]+0.005*[#  32]+0.005*[# 117]+
          +0.005*[# 143]+0.005*[# 130]+0.005*[# 156]+0.005*[# 168]+0.004*[# 116]+
          +0.004*[# 142]+0.004*[# 207]+0.004*[# 264]+0.004*[# 129]+0.004*[# 155]+
          +0.004*[# 228]+0.004*[# 254]+0.003*[#  54]+0.003*[#  93]+0.003*[# 215]+
          +0.003*[# 241]+0.003*[#  13]+0.003*[#  26]+0.003*[#  39]+0.003*[#  52]+
          +0.002*[# 162]+0.002*[# 201]+0.002*[# 220]+0.002*[# 230]+0.002*[# 246]+
          +0.002*[# 256]+0.002*[# 181]+0.002*[# 227]+0.002*[# 253]+0.002*[# 111]+
          +0.002*[# 124]+0.002*[# 137]+0.002*[# 150]+0.002*[# 194]+0.001*[# 113]+
          +0.001*[# 114]+0.001*[# 119]+0.001*[# 127]+0.001*[# 139]+0.001*[# 140]+
          +0.001*[# 145]+0.001*[# 153]+0.001*[# 210]+0.001*[# 236]+0.001*[# 183]+
          +0.001*[# 214]+0.001*[# 240]+
    |psi|^2 = 0.995
     e =     0.90021 eV
     psi = 0.132*[#  38]+0.132*[#  12]+0.045*[#  25]+0.045*[#  51]+0.038*[#  86]+
          +0.038*[#  99]+0.038*[#  60]+0.038*[#  73]+0.033*[#  15]+0.033*[#  41]+
          +0.032*[#  63]+0.032*[#  76]+0.031*[# 102]+0.030*[#  89]+0.028*[#   2]+
          +0.028*[#  28]+0.014*[# 230]+0.014*[# 256]+0.011*[# 113]+0.011*[# 139]+
          +0.010*[# 126]+0.010*[# 152]+0.009*[# 233]+0.009*[# 259]+0.006*[#  22]+
          +0.006*[#  48]+0.006*[# 220]+0.005*[# 246]+0.005*[#  90]+0.005*[# 103]+
          +0.005*[# 164]+0.005*[# 177]+0.004*[#  64]+0.004*[#  77]+0.004*[# 168]+
          +0.003*[# 181]+0.003*[# 165]+0.003*[# 190]+0.003*[# 194]+0.003*[# 203]+
          +0.003*[# 116]+0.003*[# 142]+0.003*[# 100]+0.003*[# 178]+0.003*[# 191]+
          +0.003*[# 207]+0.002*[#  61]+0.002*[# 210]+0.002*[# 236]+0.002*[# 119]+
          +0.002*[# 145]+0.002*[#   6]+0.002*[#  32]+0.002*[# 204]+0.002*[# 262]+
          +0.002*[# 110]+0.002*[# 136]+0.002*[# 218]+0.002*[# 244]+0.002*[#  96]+
          +0.002*[#   1]+0.002*[#  27]+0.002*[#  57]+0.002*[#  70]+0.002*[#  83]+
          +0.002*[# 162]+0.001*[#  14]+0.001*[#  40]+0.001*[# 106]+0.001*[# 129]+
          +0.001*[# 193]+0.002*[# 201]+0.001*[# 118]+0.001*[# 132]+0.001*[# 144]+
          +0.001*[# 155]+0.001*[# 227]+0.001*[# 253]+0.001*[# 206]+
    |psi|^2 = 0.998
     e =     0.90625 eV
     psi = 0.093*[#  12]+0.093*[#  51]+0.093*[#  25]+0.092*[#  38]+0.047*[#  85]+
          +0.047*[#  98]+0.046*[#  59]+0.046*[#  72]+0.038*[#   2]+0.039*[#  28]+
          +0.031*[#  75]+0.031*[# 101]+0.031*[#  62]+0.030*[#  88]+0.030*[#  15]+
          +0.030*[#  41]+0.014*[# 113]+0.014*[# 139]+0.009*[# 126]+0.009*[# 152]+
          +0.007*[# 176]+0.007*[# 163]+0.007*[# 202]+0.007*[# 189]+0.006*[# 263]+
          +0.004*[# 116]+0.004*[# 129]+0.004*[# 142]+0.004*[# 155]+0.004*[# 106]+
          +0.004*[# 132]+0.003*[# 220]+0.003*[# 246]+0.003*[#  22]+0.003*[#  48]+
          +0.002*[#   6]+0.002*[#  32]+0.002*[# 119]+0.002*[# 145]+0.002*[#  56]+
          +0.002*[#  69]+0.002*[#  82]+0.002*[#  95]+0.002*[# 233]+0.002*[# 259]+
          +0.002*[#   1]+0.002*[#  27]+0.002*[# 230]+0.002*[# 256]+0.002*[#  14]+
          +0.002*[#  40]+0.002*[#  91]+0.002*[# 104]+0.002*[#  65]+0.002*[#  78]+
          +0.002*[# 105]+0.002*[# 131]+0.001*[# 110]+0.001*[# 118]+0.001*[# 136]+
          +0.001*[# 144]+0.001*[# 223]+0.001*[# 249]+0.001*[# 218]+0.001*[# 244]+
          +0.001*[# 214]+0.001*[# 240]+0.001*[#  19]+0.001*[#  45]+
    |psi|^2 = 0.998
     e =     0.93308 eV
     psi = 0.109*[#  25]+0.109*[#  51]+0.066*[# 233]+0.066*[# 259]+0.036*[# 220]+
          +0.036*[# 246]+0.031*[#  90]+0.031*[# 103]+0.030*[# 168]+0.029*[# 217]+
          +0.029*[# 243]+0.029*[#  64]+0.029*[#  77]+0.028*[# 194]+0.027*[# 181]+
          +0.026*[# 207]+0.014*[# 230]+0.014*[# 256]+0.012*[# 165]+0.011*[# 191]+
          +0.010*[# 178]+0.009*[# 204]+0.008*[#   9]+0.008*[#  35]+0.008*[# 100]+
          +0.007*[#   2]+0.007*[#  28]+0.007*[# 210]+0.007*[# 236]+0.007*[#  61]+
          +0.007*[#  12]+0.007*[#  38]+0.007*[#  60]+0.007*[#  73]+0.007*[#  86]+
          +0.007*[#  99]+0.006*[# 162]+0.006*[# 201]+0.006*[#  89]+0.006*[# 102]+
          +0.005*[#  63]+0.005*[#  76]+0.004*[#  15]+0.004*[#  41]+0.004*[# 188]+
          +0.003*[# 262]+0.003*[# 175]+0.003*[#  22]+0.003*[#  48]+0.003*[#  74]+
          +0.003*[# 167]+0.003*[# 123]+0.003*[# 149]+0.002*[#  87]+0.002*[# 180]+
          +0.002*[# 264]+0.002*[# 218]+0.002*[# 244]+0.002*[# 223]+0.002*[# 249]+
          +0.002*[# 221]+0.002*[# 247]+0.001*[# 265]+
    |psi|^2 = 0.996
     e =     1.02973 eV
     psi = 0.099*[# 246]+0.099*[# 220]+0.086*[# 259]+0.086*[# 233]+0.043*[# 166]+
          +0.041*[# 179]+0.033*[# 223]+0.033*[# 249]+0.031*[# 205]+0.031*[# 192]+
          +0.028*[# 202]+0.028*[# 189]+0.028*[# 163]+0.027*[# 176]+0.020*[# 217]+
          +0.020*[# 243]+0.018*[# 263]+0.017*[# 210]+0.017*[# 236]+0.014*[#   9]+
          +0.014*[#  35]+0.009*[#  88]+0.009*[# 101]+0.009*[#  75]+0.009*[#  62]+
          +0.008*[#  12]+0.008*[#  25]+0.008*[#  38]+0.008*[#  51]+0.007*[#  91]+
          +0.007*[# 104]+0.007*[#  65]+0.006*[#  78]+0.006*[# 113]+0.006*[# 139]+
          +0.005*[# 218]+0.005*[# 244]+0.005*[# 195]+0.004*[#  15]+0.004*[#  41]+
          +0.004*[# 208]+0.003*[# 123]+0.003*[# 149]+0.003*[# 126]+0.003*[# 152]+
          +0.003*[# 214]+0.003*[# 240]+0.002*[# 169]+0.002*[# 182]+0.001*[# 106]+
          +0.001*[# 248]+0.001*[# 256]+0.001*[# 116]+0.001*[# 129]+0.001*[# 132]+
          +0.001*[# 142]+0.001*[# 155]+0.001*[# 222]+0.001*[# 227]+0.001*[# 230]+
          +0.001*[# 253]+0.001*[# 160]+0.001*[# 173]+0.001*[# 186]+0.001*[# 199]+
    |psi|^2 = 0.998
     e =     1.22208 eV
     psi = 0.048*[# 218]+0.048*[# 244]+0.044*[# 221]+0.044*[# 247]+0.040*[# 220]+
          +0.040*[# 246]+0.037*[# 180]+0.037*[#  13]+0.037*[#  39]+0.036*[#  26]+
          +0.036*[#  52]+0.034*[# 234]+0.034*[# 260]+0.034*[# 167]+0.027*[# 194]+
          +0.026*[# 207]+0.025*[# 262]+0.022*[#  12]+0.022*[#  38]+0.014*[# 210]+
          +0.014*[# 236]+0.014*[# 217]+0.014*[# 243]+0.013*[# 165]+0.012*[# 177]+
          +0.012*[# 204]+0.011*[# 164]+0.011*[#  61]+0.010*[# 162]+0.009*[# 201]+
          +0.008*[# 230]+0.008*[# 256]+0.007*[# 231]+0.007*[# 257]+0.006*[# 168]+
          +0.006*[# 197]+0.006*[# 100]+0.006*[# 181]+0.006*[#  25]+0.006*[#  51]+
          +0.005*[# 113]+0.005*[# 139]+0.004*[#  77]+0.004*[#  87]+0.004*[# 116]+
          +0.004*[# 142]+0.004*[# 228]+0.004*[# 254]+0.004*[#  64]+0.003*[# 103]+
          +0.003*[# 190]+0.003*[#   9]+0.003*[#  35]+0.003*[# 102]+0.003*[# 203]+
          +0.003*[#  71]+0.003*[# 171]+0.003*[#  89]+0.003*[#  80]+0.003*[#  90]+
          +0.003*[# 129]+0.003*[# 155]+0.002*[# 233]+0.002*[# 259]+0.002*[# 266]+
          +0.002*[#  67]+0.002*[# 111]+0.002*[# 137]+0.002*[# 215]+0.002*[# 241]+
          +0.002*[# 265]+0.002*[#  54]+0.002*[# 178]+0.001*[#  84]+0.001*[#  97]+
          +0.001*[# 114]+0.001*[# 126]+0.001*[# 140]+0.001*[# 152]+0.001*[# 127]+
          +0.001*[# 153]+0.001*[# 223]+0.001*[# 249]+
    |psi|^2 = 0.998
     e =     1.27938 eV
     psi = 0.114*[# 182]+0.113*[# 169]+0.069*[# 208]+0.066*[#  78]+0.065*[#  65]+
          +0.065*[# 195]+0.053*[# 104]+0.053*[#  91]+0.038*[# 230]+0.038*[# 256]+
          +0.030*[#  22]+0.030*[#  48]+0.026*[# 263]+0.017*[#   9]+0.017*[#  35]+
          +0.014*[# 123]+0.014*[# 149]+0.012*[# 110]+0.012*[# 136]+0.011*[# 218]+
          +0.011*[# 244]+0.008*[# 214]+0.008*[# 217]+0.008*[# 240]+0.008*[# 243]+
          +0.007*[# 220]+0.007*[# 246]+0.006*[# 210]+0.006*[# 236]+0.005*[#  15]+
          +0.005*[#  41]+0.004*[# 233]+0.004*[# 259]+0.004*[#   2]+0.004*[#  28]+
          +0.003*[# 179]+0.003*[# 223]+0.003*[# 249]+0.002*[#  19]+0.002*[#  45]+
          +0.002*[# 176]+0.001*[# 202]+0.002*[# 205]+0.001*[# 113]+0.001*[# 139]+
          +0.001*[#   6]+0.001*[#  32]+0.001*[# 166]+0.001*[# 227]+0.001*[# 253]+
          +0.001*[# 163]+
    |psi|^2 = 0.999
     e =     1.36146 eV
     psi = 0.083*[# 231]+0.083*[# 257]+0.078*[# 167]+0.065*[# 218]+0.065*[# 244]+
          +0.061*[# 180]+0.046*[#  13]+0.046*[#  39]+0.044*[#  26]+0.044*[#  52]+
          +0.024*[# 234]+0.024*[# 260]+0.014*[# 221]+0.014*[# 247]+0.013*[# 164]+
          +0.013*[# 204]+0.012*[# 177]+0.012*[# 265]+0.011*[# 264]+0.010*[# 193]+
          +0.010*[# 220]+0.010*[# 246]+0.009*[#  89]+0.008*[# 178]+0.008*[# 102]+
          +0.007*[# 217]+0.007*[# 243]+0.006*[# 262]+0.006*[# 126]+0.006*[# 152]+
          +0.005*[#  61]+0.005*[# 197]+0.005*[# 206]+0.005*[# 117]+0.005*[# 143]+
          +0.004*[#  23]+0.004*[#  49]+0.004*[#  71]+0.004*[# 233]+0.004*[# 259]+
          +0.004*[# 223]+0.004*[# 249]+0.004*[#  84]+0.003*[# 165]+0.003*[# 215]+
          +0.003*[# 241]+0.003*[# 230]+0.003*[# 256]+0.003*[#  97]+0.003*[# 130]+
          +0.003*[# 156]+0.003*[#  10]+0.003*[#  36]+0.003*[# 227]+0.003*[# 253]+
          +0.002*[#  25]+0.002*[#  51]+0.002*[# 219]+0.002*[# 245]+0.002*[#   9]+
          +0.002*[#  22]+0.002*[#  35]+0.002*[#  48]+0.002*[#  87]+0.002*[# 191]+
          +0.002*[# 201]+0.002*[#  63]+0.002*[# 113]+0.002*[# 139]+0.002*[# 210]+
          +0.002*[# 236]+0.002*[#  58]+0.002*[# 171]+0.001*[# 194]+0.001*[# 100]+
          +0.001*[# 124]+0.001*[# 150]+0.001*[#  54]+0.001*[#  76]+
    |psi|^2 = 0.999
     e =     1.40788 eV
     psi = 0.049*[# 231]+0.049*[# 257]+0.045*[# 262]+0.043*[#  13]+0.043*[#  39]+
          +0.042*[# 191]+0.041*[# 230]+0.041*[# 256]+0.041*[#  26]+0.041*[#  52]+
          +0.033*[# 207]+0.031*[# 265]+0.024*[# 217]+0.024*[# 243]+0.022*[# 194]+
          +0.017*[#  74]+0.016*[#  12]+0.016*[#  38]+0.015*[# 184]+0.015*[# 234]+
          +0.015*[# 260]+0.015*[#  25]+0.015*[#  51]+0.014*[# 264]+0.012*[# 129]+
          +0.012*[# 155]+0.011*[# 215]+0.011*[# 241]+0.009*[# 228]+0.009*[# 254]+
          +0.009*[# 188]+0.009*[# 180]+0.008*[# 117]+0.008*[# 143]+0.007*[# 201]+
          +0.007*[#  58]+0.007*[# 181]+0.006*[# 116]+0.006*[# 142]+0.006*[# 175]+
          +0.005*[# 178]+0.005*[# 130]+0.005*[# 156]+0.005*[# 162]+0.005*[# 221]+
          +0.005*[# 247]+0.004*[# 223]+0.004*[# 249]+0.004*[# 210]+0.004*[# 236]+
          +0.004*[# 167]+0.004*[#  97]+0.004*[# 124]+0.004*[# 150]+0.004*[# 219]+
          +0.004*[# 245]+0.003*[#  84]+0.003*[# 114]+0.003*[# 140]+0.002*[# 206]+
          +0.002*[# 158]+0.002*[# 168]+0.002*[# 220]+0.002*[# 246]+0.002*[# 165]+
          +0.002*[#  90]+0.002*[# 102]+0.002*[# 111]+0.002*[# 127]+0.002*[# 137]+
          +0.002*[# 153]+0.002*[# 103]+0.002*[# 126]+0.002*[# 152]+0.002*[# 204]+
          +0.002*[#  64]+0.002*[# 216]+0.002*[# 242]+0.001*[#  61]+0.001*[#  77]+
          +0.001*[#  93]+0.001*[# 100]+0.001*[# 261]+0.001*[#  23]+0.001*[#  49]+
          +0.001*[#  89]+0.001*[# 177]+0.001*[# 183]+
    |psi|^2 = 0.997
     e =     1.47666 eV
     psi = 0.076*[#  11]+0.076*[#  37]+0.074*[#  24]+0.074*[#  50]+0.067*[# 219]+
          +0.067*[# 245]+0.061*[#  75]+0.061*[#  62]+0.055*[# 179]+0.055*[# 166]+
          +0.052*[# 101]+0.051*[#  88]+0.050*[# 232]+0.050*[# 258]+0.043*[# 205]+
          +0.040*[# 192]+0.003*[# 112]+0.003*[# 125]+0.003*[# 138]+0.003*[# 151]+
          +0.002*[#   8]+0.002*[#  21]+0.002*[#  34]+0.002*[#  47]+0.002*[#  85]+
          +0.002*[#  59]+0.002*[# 229]+0.002*[# 255]+0.002*[#  98]+0.002*[#  72]+
          +0.002*[# 202]+0.001*[# 216]+0.001*[# 242]+0.001*[# 189]+0.001*[# 176]+
    |psi|^2 = 0.999
     e =     1.52035 eV
     psi = 0.136*[#  10]+0.136*[#  36]+0.131*[#  23]+0.131*[#  49]+0.098*[#  76]+
          +0.096*[#  63]+0.089*[# 102]+0.088*[#  89]+0.006*[# 231]+0.006*[# 257]+
          +0.005*[# 127]+0.005*[# 153]+0.005*[#  86]+0.005*[#  99]+0.004*[# 114]+
          +0.004*[# 140]+0.004*[#  20]+0.004*[#  46]+0.003*[#   7]+0.003*[#  33]+
          +0.003*[#  60]+0.003*[#  73]+0.003*[# 218]+0.003*[# 244]+0.002*[# 167]+
          +0.002*[# 180]+0.002*[# 220]+0.002*[# 246]+0.002*[# 265]+0.002*[# 111]+
          +0.002*[# 137]+0.001*[# 164]+0.001*[# 177]+
    |psi|^2 = 0.999
     e =     1.55839 eV
     psi = 0.082*[# 219]+0.082*[# 245]+0.060*[#  24]+0.060*[#  50]+0.058*[# 179]+
          +0.058*[# 166]+0.057*[#  11]+0.057*[#  37]+0.057*[# 232]+0.057*[# 258]+
          +0.051*[# 205]+0.049*[#  88]+0.048*[# 101]+0.047*[# 192]+0.041*[#  62]+
          +0.040*[#  75]+0.018*[# 115]+0.017*[# 141]+0.015*[# 128]+0.015*[# 154]+
          +0.002*[# 202]+0.002*[# 229]+0.002*[# 255]+0.002*[#  72]+0.001*[#  98]+
          +0.001*[#   8]+0.001*[#  21]+0.001*[#  34]+0.001*[#  47]+0.001*[# 176]+
          +0.001*[# 189]+0.001*[#  59]+0.001*[# 216]+0.001*[# 242]+0.001*[#  85]+
          +0.001*[# 163]+
    |psi|^2 = 0.998
     e =     1.75062 eV
     psi = 0.067*[# 234]+0.067*[# 260]+0.054*[# 193]+0.054*[# 221]+0.054*[# 247]+
          +0.053*[# 130]+0.054*[# 156]+0.043*[# 114]+0.043*[# 140]+0.040*[#  26]+
          +0.040*[#  52]+0.035*[# 127]+0.035*[# 153]+0.032*[# 206]+0.032*[# 117]+
          +0.032*[# 143]+0.030*[#  13]+0.030*[#  39]+0.025*[# 167]+0.009*[# 175]+
          +0.009*[# 180]+0.008*[# 188]+0.008*[# 220]+0.008*[# 246]+0.007*[# 102]+
          +0.006*[#  71]+0.006*[# 201]+0.006*[# 264]+0.005*[#  97]+0.005*[# 162]+
          +0.005*[# 230]+0.005*[# 256]+0.005*[#  76]+0.005*[#  84]+0.004*[#  58]+
          +0.004*[# 265]+0.003*[#  74]+0.003*[#  36]+0.003*[# 218]+0.003*[#  10]+
          +0.003*[# 244]+0.003*[#  99]+0.002*[#  86]+0.002*[# 228]+0.002*[# 254]+
[...]
          +0.003*[# 214]+0.003*[# 240]+0.003*[# 189]+0.003*[# 220]+0.003*[# 246]+
          +0.003*[# 158]+0.003*[#  10]+0.003*[#  36]+0.003*[# 117]+0.003*[# 143]+
          +0.003*[# 264]+0.002*[#  19]+0.002*[#  45]+0.002*[#  60]+0.002*[# 221]+
          +0.002*[# 247]+0.002*[#  15]+0.002*[#  41]+0.002*[#  25]+0.002*[#  51]+
          +0.002*[#  73]+0.002*[#  98]+0.001*[# 125]+0.001*[# 151]+0.001*[#  20]+
          +0.001*[#  46]+0.001*[# 112]+0.001*[# 138]+0.001*[# 152]+0.001*[# 241]+
          +0.001*[#  67]+0.001*[# 126]+0.001*[# 175]+0.001*[# 215]+0.001*[#  12]+
          +0.001*[#  23]+0.001*[#  38]+0.001*[#  49]+
    |psi|^2 = 0.991
     e =     8.35232 eV
     psi = 0.057*[# 227]+0.057*[# 253]+0.055*[#   6]+0.055*[#  32]+0.036*[#  19]+
          +0.036*[#  45]+0.032*[#  87]+0.031*[# 100]+0.030*[# 191]+0.030*[# 204]+
          +0.028*[# 169]+0.028*[#  65]+0.028*[#  78]+0.028*[# 182]+0.016*[# 263]+
          +0.015*[# 115]+0.015*[# 141]+0.014*[# 214]+0.014*[# 240]+0.011*[#  10]+
          +0.011*[#  36]+0.010*[# 231]+0.010*[# 257]+0.009*[# 123]+0.009*[# 149]+
          +0.009*[# 219]+0.009*[# 245]+0.009*[# 218]+0.009*[# 244]+0.008*[#  24]+
          +0.008*[#  50]+0.008*[# 127]+0.008*[# 153]+0.007*[# 128]+0.007*[# 154]+
          +0.007*[# 188]+0.007*[# 215]+0.007*[# 241]+0.007*[# 201]+0.006*[# 223]+
          +0.006*[# 249]+0.006*[#  62]+0.005*[#  75]+0.006*[# 228]+0.006*[# 254]+
          +0.005*[# 206]+0.005*[#  23]+0.005*[#  49]+0.005*[# 193]+0.005*[# 217]+
          +0.005*[# 243]+0.005*[# 117]+0.005*[# 143]+0.005*[#   7]+0.005*[#  33]+
          +0.004*[#  80]+0.004*[#  93]+0.004*[# 110]+0.004*[# 136]+0.004*[#  89]+
          +0.004*[# 102]+0.004*[# 197]+0.004*[#  21]+0.004*[#  47]+0.004*[# 176]+
          +0.004*[#  11]+0.004*[#  37]+0.004*[# 163]+0.004*[# 166]+0.004*[# 184]+
          +0.004*[# 216]+0.004*[# 242]+0.003*[#   2]+0.003*[#  28]+0.003*[# 179]+
          +0.002*[#  26]+0.002*[#  52]+0.002*[# 113]+0.002*[# 139]+0.002*[# 207]+
          +0.002*[#  59]+0.002*[#  72]+0.002*[# 221]+0.002*[# 247]+0.002*[# 194]+
          +0.002*[# 190]+0.002*[# 203]+0.002*[#  90]+0.001*[#   9]+0.001*[#  35]+
          +0.001*[# 103]+0.001*[#  84]+0.001*[#  20]+0.001*[#  22]+0.001*[#  48]+
          +0.001*[#  97]+0.001*[#  46]+
    |psi|^2 = 0.994
     e =     8.99045 eV
     psi = 0.044*[#  19]+0.044*[#  45]+0.041*[# 166]+0.040*[# 179]+0.038*[#  62]+
          +0.038*[#  75]+0.028*[# 130]+0.028*[# 156]+0.023*[# 206]+0.023*[# 188]+
          +0.023*[# 193]+0.023*[# 201]+0.018*[#  84]+0.018*[#  97]+0.018*[# 102]+
          +0.017*[#  89]+0.015*[# 117]+0.015*[# 143]+0.015*[# 234]+0.015*[# 260]+
          +0.015*[#   8]+0.015*[#  34]+0.013*[# 229]+0.013*[# 255]+0.013*[# 216]+
          +0.013*[# 242]+0.011*[# 263]+0.011*[#  21]+0.011*[#  47]+0.011*[#  23]+
          +0.011*[#  49]+0.011*[# 215]+0.011*[# 241]+0.010*[#  26]+0.010*[#  52]+
          +0.009*[#  65]+0.009*[#  78]+0.009*[#  11]+0.009*[#  37]+0.007*[#  13]+
          +0.007*[#  39]+0.007*[# 218]+0.007*[# 244]+0.007*[#   2]+0.007*[#  28]+
          +0.007*[# 125]+0.007*[# 151]+0.007*[#  15]+0.007*[#  41]+0.007*[# 210]+
          +0.007*[# 217]+0.007*[# 236]+0.007*[# 243]+0.006*[# 106]+0.006*[# 132]+
          +0.006*[# 221]+0.006*[# 247]+0.006*[# 111]+0.006*[# 137]+0.005*[#  20]+
          +0.005*[#  46]+0.005*[# 112]+0.005*[# 138]+0.005*[# 227]+0.005*[# 253]+
          +0.004*[# 232]+0.004*[# 258]+0.003*[# 214]+0.003*[# 240]+0.003*[#  10]+
          +0.003*[#  36]+0.003*[#  86]+0.003*[#  99]+0.003*[# 223]+0.003*[# 249]+
          +0.003*[#  24]+0.003*[#  50]+0.002*[#   7]+0.002*[#  33]+0.002*[# 113]+
          +0.002*[# 139]+0.002*[# 219]+0.002*[# 245]+0.002*[# 100]+0.002*[#  87]+
          +0.002*[#  80]+0.002*[#  93]+0.002*[# 119]+0.002*[# 145]+0.002*[#   6]+
          +0.002*[#  32]+0.002*[# 124]+0.002*[# 150]+0.001*[#   9]+0.001*[#  35]+
          +0.001*[# 231]+0.001*[# 257]+0.001*[# 123]+0.001*[# 127]+0.001*[# 149]+
          +0.001*[# 153]+0.001*[# 169]+0.001*[# 182]+
    |psi|^2 = 0.993
     e =     9.04213 eV
     psi = 0.049*[# 192]+0.038*[#  19]+0.038*[#  45]+0.036*[# 205]+0.030*[# 229]+
          +0.030*[# 255]+0.029*[# 162]+0.029*[#  88]+0.023*[# 101]+0.023*[# 261]+
          +0.021*[# 130]+0.021*[# 156]+0.020*[# 266]+0.019*[#  76]+0.018*[# 180]+
          +0.018*[#  58]+0.016*[# 175]+0.016*[# 234]+0.016*[# 260]+0.015*[#   8]+
          +0.015*[#  34]+0.014*[#  91]+0.014*[#  63]+0.013*[# 214]+0.013*[# 240]+
          +0.012*[#  21]+0.012*[#  47]+0.012*[# 167]+0.012*[# 216]+0.012*[# 242]+
          +0.012*[# 117]+0.012*[# 143]+0.011*[#  71]+0.010*[#  23]+0.010*[#  49]+
          +0.008*[# 104]+0.008*[#  26]+0.008*[#  52]+0.007*[# 111]+0.007*[# 137]+
          +0.007*[# 210]+0.007*[# 236]+0.007*[#  11]+0.007*[#  37]+0.006*[#  73]+
          +0.006*[# 221]+0.006*[# 247]+0.006*[#  13]+0.006*[#  39]+0.006*[#  60]+
          +0.005*[# 106]+0.005*[# 132]+0.005*[#   2]+0.005*[#  28]+0.005*[# 264]+
          +0.005*[# 220]+0.005*[# 246]+0.005*[#   6]+0.005*[#  10]+0.005*[#  36]+
          +0.005*[#  15]+0.005*[#  32]+0.005*[#  41]+0.004*[# 119]+0.004*[# 145]+
          +0.003*[#  20]+0.003*[#  46]+0.003*[# 177]+0.003*[# 217]+0.003*[# 243]+
          +0.003*[# 125]+0.003*[# 168]+0.003*[# 151]+0.003*[# 232]+0.003*[# 258]+
          +0.003*[# 181]+0.003*[#  74]+0.002*[# 116]+0.002*[# 142]+0.002*[# 227]+
          +0.002*[# 253]+0.002*[# 112]+0.002*[# 138]+0.002*[#  24]+0.002*[#  50]+
          +0.002*[# 215]+0.002*[# 241]+0.002*[# 202]+0.002*[# 231]+0.002*[# 257]+
          +0.002*[# 265]+0.002*[# 124]+0.002*[# 150]+0.002*[#  64]+0.002*[#  67]+
          +0.002*[# 113]+0.002*[# 127]+0.002*[# 139]+0.002*[# 153]+0.002*[# 164]+
          +0.001*[#  61]+0.001*[#   9]+0.001*[#  35]+0.001*[# 115]+0.001*[# 141]+
          +0.001*[#   7]+0.001*[#  33]+0.001*[# 223]+0.001*[# 249]+
    |psi|^2 = 0.977
     e =     9.36805 eV
     psi = 0.087*[#   6]+0.087*[#  32]+0.056*[#  19]+0.056*[#  45]+0.037*[# 175]+
          +0.026*[# 227]+0.026*[# 253]+0.021*[#  71]+0.019*[# 162]+0.018*[# 266]+
          +0.017*[# 126]+0.017*[# 152]+0.015*[# 205]+0.013*[# 113]+0.013*[# 139]+
          +0.012*[# 262]+0.011*[# 265]+0.010*[#  58]+0.010*[# 167]+0.009*[# 214]+
          +0.009*[# 240]+0.009*[#  63]+0.008*[# 230]+0.008*[# 256]+0.008*[# 101]+
          +0.008*[# 104]+0.008*[# 117]+0.008*[# 143]+0.007*[#  61]+0.007*[#  22]+
          +0.007*[#  48]+0.007*[# 124]+0.007*[# 150]+0.006*[#   9]+0.006*[#  35]+
          +0.005*[# 223]+0.005*[# 249]+0.005*[# 218]+0.005*[# 244]+0.005*[#  10]+
          +0.005*[#  36]+0.005*[# 111]+0.005*[# 137]+0.005*[# 210]+0.005*[# 236]+
          +0.004*[#  74]+0.004*[# 119]+0.004*[# 145]+0.004*[# 231]+0.004*[# 257]+
          +0.003*[#  24]+0.003*[#  50]+0.003*[#  76]+0.003*[# 130]+0.003*[# 156]+
          +0.003*[# 180]+0.003*[# 192]+0.003*[# 221]+0.003*[# 247]+0.003*[#  15]+
          +0.003*[#  41]+0.003*[#  60]+0.002*[# 217]+0.002*[# 243]+0.002*[#  88]+
          +0.002*[# 264]+0.002*[#  13]+0.002*[#  21]+0.002*[#  39]+0.002*[#  47]+
          +0.002*[# 106]+0.002*[# 132]+0.002*[# 195]+0.002*[#  23]+0.002*[#  49]+
          +0.002*[# 216]+0.002*[# 242]+0.001*[#  77]+0.001*[#  91]+0.001*[# 158]+
          +0.001*[# 181]+0.001*[#   7]+0.001*[#  11]+0.001*[#  33]+0.001*[#  37]+
          +0.001*[# 220]+
    |psi|^2 = 0.850
     e =     9.54241 eV
     psi = 0.071*[# 227]+0.071*[# 253]+0.063*[#   6]+0.063*[#  32]+0.051*[# 214]+
          +0.051*[# 240]+0.025*[#  19]+0.025*[#  45]+0.015*[#  97]+0.014*[#  84]+
          +0.011*[# 126]+0.011*[# 152]+0.010*[# 201]+0.009*[# 188]+0.006*[# 113]+
          +0.006*[# 139]+0.006*[# 263]+0.006*[#  15]+0.006*[#  41]+0.006*[# 117]+
          +0.006*[# 143]+0.005*[# 204]+0.005*[#  22]+0.005*[#  48]+0.004*[# 230]+
          +0.004*[# 256]+0.004*[#  75]+0.004*[# 179]+0.004*[# 191]+0.004*[# 215]+
          +0.004*[# 241]+0.004*[#  89]+0.004*[# 169]+0.004*[#   9]+0.004*[#  35]+
          +0.004*[#  62]+0.004*[# 102]+0.004*[# 124]+0.004*[# 150]+0.004*[# 218]+
          +0.004*[# 244]+0.004*[# 166]+0.003*[# 111]+0.003*[# 137]+0.003*[# 182]+
          +0.003*[# 193]+0.003*[# 231]+0.003*[# 257]+0.002*[#  10]+0.003*[#  24]+
          +0.002*[#  36]+0.003*[#  50]+0.002*[# 119]+0.002*[# 145]+0.002*[# 203]+
          +0.002*[# 206]+0.002*[# 190]+0.002*[#  78]+0.002*[# 223]+0.002*[# 249]+
          +0.002*[#  72]+0.002*[#  65]+0.002*[#  13]+0.002*[#  39]+0.002*[#  59]+
          +0.001*[#  93]+0.002*[# 106]+0.002*[# 132]+0.001*[# 194]+0.001*[# 219]+
          +0.001*[# 207]+0.001*[# 210]+0.001*[# 236]+0.001*[# 245]+0.001*[#  80]+
          +0.001*[# 116]+0.001*[# 123]+0.001*[# 142]+0.001*[# 149]+
    |psi|^2 = 0.720
     e =     9.74875 eV
     psi = 0.032*[#  73]+0.030*[#  60]+0.028*[# 177]+0.027*[# 164]+0.026*[# 168]+
          +0.025*[# 181]+0.025*[#  77]+0.025*[#  64]+0.022*[# 266]+0.020*[# 125]+
          +0.020*[# 151]+0.019*[# 265]+0.018*[# 112]+0.018*[# 138]+0.017*[# 233]+
          +0.017*[# 259]+0.016*[# 216]+0.016*[# 242]+0.015*[# 129]+0.015*[# 155]+
          +0.014*[# 189]+0.014*[# 202]+0.014*[# 227]+0.014*[# 253]+0.013*[# 261]+
          +0.012*[#  98]+0.011*[#  21]+0.011*[#  47]+0.010*[# 116]+0.010*[#   8]+
          +0.010*[#  34]+0.010*[# 142]+0.009*[# 158]+0.009*[# 214]+0.009*[# 240]+
          +0.009*[#  25]+0.009*[#  51]+0.008*[#  12]+0.008*[#  38]+0.008*[#  85]+
          +0.008*[# 124]+0.008*[# 150]+0.008*[#  67]+0.008*[# 171]+0.007*[# 229]+
          +0.007*[# 255]+0.006*[#  20]+0.006*[#  46]+0.006*[#  54]+0.006*[# 264]+
          +0.005*[# 215]+0.005*[# 241]+0.005*[# 130]+0.005*[# 156]+0.005*[#  91]+
          +0.005*[# 210]+0.004*[# 236]+0.004*[#   2]+0.004*[# 244]+0.004*[#   7]+
          +0.004*[#  28]+0.004*[#  33]+0.004*[# 218]+0.004*[# 104]+0.004*[# 113]+
          +0.004*[# 139]+0.004*[# 178]+0.004*[#  15]+0.004*[#  41]+0.004*[# 119]+
          +0.004*[# 145]+0.003*[# 162]+0.003*[# 220]+0.003*[# 246]+0.003*[#  61]+
          +0.003*[#  74]+0.003*[# 195]+0.003*[#  19]+0.003*[#  45]+0.003*[#  10]+
          +0.003*[#  11]+0.003*[#  36]+0.003*[#  37]+0.003*[# 106]+0.003*[# 132]+
          +0.003*[# 192]+0.003*[# 208]+0.003*[# 219]+0.003*[# 232]+0.003*[# 245]+
          +0.003*[# 258]+0.002*[#   6]+0.002*[#  32]+0.002*[# 101]+0.002*[# 111]+
          +0.002*[# 137]+0.002*[# 175]+0.002*[# 205]+0.002*[# 228]+0.002*[# 254]+
          +0.002*[# 165]+0.001*[#  88]+0.001*[# 117]+0.001*[# 143]+0.001*[#  23]+
          +0.001*[#  49]+0.001*[#  22]+0.001*[#  48]+0.001*[#  71]+
    |psi|^2 = 0.911
     e =     9.76548 eV
     psi = 0.044*[#  86]+0.043*[#  99]+0.037*[# 203]+0.036*[# 190]+0.033*[#  90]+
          +0.033*[# 103]+0.033*[# 207]+0.032*[# 194]+0.025*[# 112]+0.025*[# 138]+
          +0.025*[# 125]+0.025*[# 151]+0.017*[# 129]+0.017*[# 155]+0.016*[# 116]+
          +0.016*[# 142]+0.015*[#  21]+0.015*[#  47]+0.015*[#   8]+0.015*[#  34]+
          +0.013*[# 229]+0.013*[# 255]+0.013*[# 163]+0.013*[# 176]+0.012*[#  59]+
          +0.012*[#  72]+0.011*[#  12]+0.011*[#  38]+0.011*[# 216]+0.011*[# 242]+
          +0.011*[#  25]+0.011*[#  51]+0.010*[# 233]+0.010*[# 259]+0.010*[# 197]+
          +0.010*[# 184]+0.010*[# 220]+0.010*[# 246]+0.008*[#  80]+0.008*[#  93]+
          +0.008*[# 228]+0.008*[# 254]+0.007*[# 124]+0.007*[# 150]+0.007*[#   7]+
          +0.007*[#  33]+0.007*[#  20]+0.007*[#  46]+0.006*[# 111]+0.006*[# 137]+
          +0.006*[#   2]+0.006*[#  28]+0.006*[#  65]+0.006*[#  78]+0.005*[# 210]+
          +0.005*[# 236]+0.005*[# 215]+0.005*[# 241]+0.005*[# 119]+0.005*[# 145]+
          +0.004*[# 223]+0.004*[# 249]+0.004*[#  15]+0.004*[#  41]+0.004*[# 130]+
          +0.004*[# 156]+0.004*[#  87]+0.004*[# 100]+0.004*[# 106]+0.004*[# 132]+
          +0.004*[# 182]+0.003*[# 169]+0.003*[# 191]+0.003*[# 117]+0.003*[# 143]+
          +0.003*[# 204]+0.003*[# 166]+0.003*[# 179]+0.003*[#  10]+0.003*[#  36]+
          +0.003*[# 113]+0.003*[# 139]+0.002*[#  23]+0.002*[#  49]+0.002*[# 219]+
          +0.002*[# 232]+0.002*[# 245]+0.002*[# 258]+0.002*[# 218]+0.002*[# 244]+
          +0.002*[#  62]+0.002*[#  11]+0.002*[#  37]+0.002*[#  75]+0.002*[#  24]+
          +0.002*[#  50]+0.002*[# 126]+0.002*[# 152]+0.001*[# 227]+0.001*[# 231]+
          +0.001*[# 253]+0.001*[# 257]+
    |psi|^2 = 0.992

Lowdin Charges: 

     Atom #   1: total charge =  15.7950, s =  2.3790, p =  6.8572, d =  6.5587, 
                 spin up      =   9.4549, s =  1.1968, p =  3.4310, d =  4.8270, 
                 spin down    =   6.3401, s =  1.1822, p =  3.4262, d =  1.7318, 
                 polarization =   3.1148, s =  0.0147, p =  0.0048, d =  3.0952, 
     Atom #   2: total charge =  15.7945, s =  2.3783, p =  6.8563, d =  6.5599, 
                 spin up      =   9.4532, s =  1.1960, p =  3.4294, d =  4.8278, 
                 spin down    =   6.3413, s =  1.1823, p =  3.4270, d =  1.7320, 
                 polarization =   3.1119, s =  0.0137, p =  0.0024, d =  3.0958, 
     Atom #   3: total charge =  15.7950, s =  2.3790, p =  6.8572, d =  6.5587, 
                 spin up      =   9.4549, s =  1.1968, p =  3.4310, d =  4.8270, 
                 spin down    =   6.3401, s =  1.1822, p =  3.4262, d =  1.7317, 
                 polarization =   3.1148, s =  0.0147, p =  0.0048, d =  3.0953, 
     Atom #   4: total charge =  15.7945, s =  2.3783, p =  6.8563, d =  6.5599, 
                 spin up      =   9.4532, s =  1.1960, p =  3.4294, d =  4.8278, 
                 spin down    =   6.3413, s =  1.1823, p =  3.4270, d =  1.7320, 
                 polarization =   3.1119, s =  0.0137, p =  0.0024, d =  3.0958, 
     Atom #   5: total charge =  16.1356, s =  2.3078, p =  7.1600, d =  6.6678, 
                 spin up      =   9.1952, s =  1.1409, p =  3.5180, d =  4.5362, 
                 spin down    =   6.9404, s =  1.1668, p =  3.6419, d =  2.1317, 
                 polarization =   2.2547, s = -0.0259, p = -0.1239, d =  2.4045, 
     Atom #   6: total charge =  16.1352, s =  2.3077, p =  7.1598, d =  6.6677, 
                 spin up      =   9.1984, s =  1.1410, p =  3.5176, d =  4.5398, 
                 spin down    =   6.9369, s =  1.1667, p =  3.6422, d =  2.1279, 
                 polarization =   2.2615, s = -0.0258, p = -0.1246, d =  2.4119, 
     Atom #   7: total charge =  16.1351, s =  2.3086, p =  7.1603, d =  6.6662, 
                 spin up      =   9.2032, s =  1.1416, p =  3.5183, d =  4.5433, 
                 spin down    =   6.9319, s =  1.1670, p =  3.6420, d =  2.1229, 
                 polarization =   2.2713, s = -0.0254, p = -0.1237, d =  2.4205, 
     Atom #   8: total charge =  16.1352, s =  2.3086, p =  7.1601, d =  6.6665, 
                 spin up      =   9.2054, s =  1.1416, p =  3.5182, d =  4.5456, 
                 spin down    =   6.9299, s =  1.1671, p =  3.6419, d =  2.1210, 
                 polarization =   2.2755, s = -0.0255, p = -0.1236, d =  2.4246, 
     Atom #   9: total charge =  16.0079, s =  2.2885, p =  7.0816, d =  6.6378, 
                 spin up      =   9.0768, s =  1.1346, p =  3.4827, d =  4.4595, 
                 spin down    =   6.9311, s =  1.1539, p =  3.5989, d =  2.1783, 
                 polarization =   2.1457, s = -0.0194, p = -0.1162, d =  2.2812, 
     Atom #  10: total charge =  16.0047, s =  2.2878, p =  7.0833, d =  6.6337, 
                 spin up      =   9.1039, s =  1.1339, p =  3.4825, d =  4.4875, 
                 spin down    =   6.9009, s =  1.1539, p =  3.6008, d =  2.1461, 
                 polarization =   2.2030, s = -0.0200, p = -0.1184, d =  2.3414, 
     Atom #  11: total charge =  16.0079, s =  2.2885, p =  7.0816, d =  6.6377, 
                 spin up      =   9.0768, s =  1.1346, p =  3.4827, d =  4.4595, 
                 spin down    =   6.9310, s =  1.1539, p =  3.5989, d =  2.1782, 
                 polarization =   2.1458, s = -0.0194, p = -0.1162, d =  2.2813, 
     Atom #  12: total charge =  16.0047, s =  2.2878, p =  7.0833, d =  6.6337, 
                 spin up      =   9.1039, s =  1.1339, p =  3.4824, d =  4.4876, 
                 spin down    =   6.9008, s =  1.1539, p =  3.6008, d =  2.1461, 
                 polarization =   2.2031, s = -0.0200, p = -0.1184, d =  2.3415, 
     Atom #  13: total charge =  16.0847, s =  2.3055, p =  7.1205, d =  6.6587, 
                 spin up      =   9.1952, s =  1.1395, p =  3.4939, d =  4.5619, 
                 spin down    =   6.8894, s =  1.1660, p =  3.6266, d =  2.0968, 
                 polarization =   2.3058, s = -0.0265, p = -0.1327, d =  2.4650, 
     Atom #  14: total charge =  16.0759, s =  2.3040, p =  7.1146, d =  6.6573, 
                 spin up      =   9.1945, s =  1.1385, p =  3.4914, d =  4.5646, 
                 spin down    =   6.8814, s =  1.1655, p =  3.6232, d =  2.0927, 
                 polarization =   2.3130, s = -0.0271, p = -0.1318, d =  2.4719, 
     Atom #  15: total charge =  16.1122, s =  2.3116, p =  7.1513, d =  6.6493, 
                 spin up      =   9.1903, s =  1.1450, p =  3.5103, d =  4.5351, 
                 spin down    =   6.9219, s =  1.1666, p =  3.6410, d =  2.1142, 
                 polarization =   2.2684, s = -0.0217, p = -0.1307, d =  2.4208, 
     Atom #  16: total charge =  16.1082, s =  2.3126, p =  7.1506, d =  6.6450, 
                 spin up      =   9.2164, s =  1.1453, p =  3.5080, d =  4.5631, 
                 spin down    =   6.8918, s =  1.1673, p =  3.6426, d =  2.0819, 
                 polarization =   2.3246, s = -0.0219, p = -0.1346, d =  2.4811, 
     Atom #  17: total charge =  15.7109, s =  2.3451, p =  6.8753, d =  6.4905, 
                 spin up      =   9.3914, s =  1.1742, p =  3.4284, d =  4.7887, 
                 spin down    =   6.3195, s =  1.1709, p =  3.4469, d =  1.7018, 
                 polarization =   3.0718, s =  0.0034, p = -0.0185, d =  3.0870, 
     Atom #  18: total charge =  15.8755, s =  2.3616, p =  6.9262, d =  6.5877, 
                 spin up      =   9.3798, s =  1.1861, p =  3.4534, d =  4.7403, 
                 spin down    =   6.4957, s =  1.1755, p =  3.4728, d =  1.8474, 
                 polarization =   2.8841, s =  0.0107, p = -0.0195, d =  2.8929, 
     Atom #  19: total charge =  15.7109, s =  2.3451, p =  6.8753, d =  6.4905, 
                 spin up      =   9.3914, s =  1.1742, p =  3.4284, d =  4.7887, 
                 spin down    =   6.3196, s =  1.1709, p =  3.4469, d =  1.7018, 
                 polarization =   3.0718, s =  0.0033, p = -0.0185, d =  3.0869, 
     Atom #  20: total charge =  15.8756, s =  2.3617, p =  6.9263, d =  6.5876, 
                 spin up      =   9.3798, s =  1.1862, p =  3.4534, d =  4.7402, 
                 spin down    =   6.4958, s =  1.1755, p =  3.4729, d =  1.8474, 
                 polarization =   2.8840, s =  0.0107, p = -0.0195, d =  2.8928, 
     Atom #  21: total charge =   6.5353, s =  1.6428, p =  4.8924, d =  0.0000, 
                 spin up      =   3.3172, s =  0.8247, p =  2.4925, d =  0.0000, 
                 spin down    =   3.2181, s =  0.8181, p =  2.4000, d =  0.0000, 
                 polarization =   0.0991, s =  0.0066, p =  0.0925, d =  0.0000, 
     Atom #  22: total charge =   0.9885, s =  0.9885, p =  0.0000, d =  0.0000, 
                 spin up      =   0.4619, s =  0.4619, p =  0.0000, d =  0.0000, 
                 spin down    =   0.5265, s =  0.5265, p =  0.0000, d =  0.0000, 
                 polarization =  -0.0646, s = -0.0646, p =  0.0000, d =  0.0000, 
     Atom #  23: total charge =   0.6023, s =  0.6023, p =  0.0000, d =  0.0000, 
                 spin up      =   0.3023, s =  0.3023, p =  0.0000, d =  0.0000, 
                 spin down    =   0.3000, s =  0.3000, p =  0.0000, d =  0.0000, 
                 polarization =   0.0023, s =  0.0023, p =  0.0000, d =  0.0000, 
     Spilling Parameter:   0.0018
Application 16678653 resources: utime ~4692s, stime ~144s, Rss ~257116, inblocks ~43710522, outblocks ~31766582
