
     Program PWSCF v.5.0.2 (svn rev. 9656) starts on  3Aug2015 at 18:14: 6 

     This program is part of the open-source Quantum ESPRESSO suite
     for quantum simulation of materials; please cite
         "P. Giannozzi et al., J. Phys.:Condens. Matter 21 395502 (2009);
          URL http://www.quantum-espresso.org", 
     in publications or presentations arising from this work. More details at
     http://www.quantum-espresso.org/quote.php

     Parallel version (MPI & OpenMP), running on      48 processor cores
     Number of MPI processes:                48
     Threads/MPI process:                     1
     K-points division:     npool     =       4
     R & G space division:  proc/nbgrp/npool/nimage =      12
     wavefunctions fft division:  fft/group =       2

     Current dimensions of program PWSCF are:
     Max number of different atomic species (ntypx) = 10
     Max number of k-points (npk) =  40000
     Max angular momentum in pseudopotentials (lmaxx) =  3
     Reading input from Fe_100_2x2_HO_FH_O_SB_0.25ML_scf.in
Warning: card  &IONS ignored
Warning: card  / ignored
Warning: card  &CELL ignored
Warning: card    PRESS=0.0 ignored
Warning: card    PRESS_CONV_THR=0.1 ignored
Warning: card  / ignored

     IMPORTANT: XC functional enforced from input :
     Exchange-correlation      = PBE ( 1 4 3 4 0)
     EXX-fraction              =        0.00
     Any further DFT definition will be discarded
     Please, verify this is what you really want

               file Fe.pbe-spn-kjpaw_psl.0.2.1.UPF: wavefunction(s)  3D renormalized
               file O.pbe-n-kjpaw_psl.0.1.UPF: wavefunction(s)  2P renormalized
               file H.pbe-kjpaw_psl.0.1.upf: wavefunction(s)  1S renormalized

     Subspace diagonalization in iterative solution of the eigenvalue problem:
     scalapack distributed-memory algorithm (size of sub-group:  2*  2 procs)


   Task Groups are in USE
   groups and procs/group :     2    6
 
     Parallelization info
     --------------------
     sticks:   dense  smooth     PW     G-vecs:    dense   smooth      PW
     Min         608     288     79               124119    40608    5765
     Max         610     289     80               124128    40659    5774
     Sum        7305    3457    949              1489451   487579   69203
 


     bravais-lattice index     =            0
     lattice parameter (alat)  =       1.8897  a.u.
     unit-cell volume          =    3898.2644 (a.u.)^3
     number of atoms/cell      =           23
     number of atomic types    =            3
     number of electrons       =       328.00
     number of Kohn-Sham states=          202
     kinetic-energy cutoff     =      95.0000  Ry
     charge density cutoff     =     800.0000  Ry
     convergence threshold     =      1.0E-08
     mixing beta               =       0.5000
     number of iterations used =            8  local-TF  mixing
     Exchange-correlation      = PBE ( 1 4 3 4 0)
     EXX-fraction              =        0.00

     celldm(1)=   1.889727  celldm(2)=   0.000000  celldm(3)=   0.000000
     celldm(4)=   0.000000  celldm(5)=   0.000000  celldm(6)=   0.000000

     crystal axes: (cart. coord. in units of alat)
               a(1) = (   5.665012   0.000000   0.000000 )  
               a(2) = (   0.000000   5.665012   0.000000 )  
               a(3) = (   0.000000   0.000000  18.000000 )  

     reciprocal axes: (cart. coord. in units 2 pi/alat)
               b(1) = (  0.176522 -0.000000  0.000000 )  
               b(2) = (  0.000000  0.176522  0.000000 )  
               b(3) = (  0.000000  0.000000  0.055556 )  


     PseudoPot. # 1 for Fe read from file:
     /work/e05/e05/ablar/QE_PSEUDO/Fe.pbe-spn-kjpaw_psl.0.2.1.UPF
     MD5 check sum: a0a08122d52b112de96d1da1d7dd020f
     Pseudo is Projector augmented-wave + core cor, Zval = 16.0
     Generated using "atomic" code by A. Dal Corso  v.5.0.2 svn rev. 9415
     Shape of augmentation charge: PSQ
     Using radial grid of 1191 points,  6 beta functions with: 
                l(1) =   0
                l(2) =   0
                l(3) =   1
                l(4) =   1
                l(5) =   2
                l(6) =   2
     Q(r) pseudized with 0 coefficients 


     PseudoPot. # 2 for  O read from file:
     /work/e05/e05/ablar/QE_PSEUDO/O.pbe-n-kjpaw_psl.0.1.UPF
     MD5 check sum: 1d826bf4880e2aee2c3af49d0719521d
     Pseudo is Projector augmented-wave + core cor, Zval =  6.0
     Generated using "atomic" code by A. Dal Corso  v.5.0.2 svn rev. 9415
     Shape of augmentation charge: BESSEL
     Using radial grid of 1095 points,  4 beta functions with: 
                l(1) =   0
                l(2) =   0
                l(3) =   1
                l(4) =   1
     Q(r) pseudized with 0 coefficients 


     PseudoPot. # 3 for  H read from file:
     /work/e05/e05/ablar/QE_PSEUDO/H.pbe-kjpaw_psl.0.1.upf
     MD5 check sum: 94e484f906d9e9773b2f6e52662335b2
     Pseudo is Projector augmented-wave, Zval =  1.0
     Generated using "atomic" code by A. Dal Corso  v.5.0.99 svn rev. 10869
     Shape of augmentation charge: PSQ
     Using radial grid of  929 points,  2 beta functions with: 
                l(1) =   0
                l(2) =   0
     Q(r) pseudized with 0 coefficients 


     atomic species   valence    mass     pseudopotential
        Fe            16.00    55.85000     Fe( 1.00)
        O              6.00    16.00000      O( 1.00)
        H              1.00     1.00000      H( 1.00)

     Starting magnetic structure 
     atomic species   magnetization
        Fe           0.600
        O            0.000
        H            0.000


     Simplified LDA+U calculation (l_max = 2) with parameters (eV):
     atomic species    L          U    alpha       J0     beta
        Fe             2     0.0000   0.0000   0.0000   0.0000



     No symmetry found


                                    s                        frac. trans.

      isym =  1     identity                                     

 cryst.   s( 1) = (     1          0          0      )
                  (     0          1          0      )
                  (     0          0          1      )

 cart.    s( 1) = (  1.0000000  0.0000000  0.0000000 )
                  (  0.0000000  1.0000000  0.0000000 )
                  (  0.0000000  0.0000000  1.0000000 )


     point group C_1 (1)    
     there are  1 classes
     the character table:

       E    
A      1.00

     the symmetry operations in each class:
     E        1

   Cartesian axes

     site n.     atom                  positions (alat units)
         1           Fe  tau(   1) = (   0.0000000   0.0000000  -2.8324989  )
         2           Fe  tau(   2) = (   0.0000000   2.8325089  -2.8324989  )
         3           Fe  tau(   3) = (   2.8325089   0.0000000  -2.8324989  )
         4           Fe  tau(   4) = (   2.8324989   2.8325089  -2.8324989  )
         5           Fe  tau(   5) = (   1.4162494   1.4162494  -1.4162594  )
         6           Fe  tau(   6) = (   1.4162494  -1.4162494  -1.4162594  )
         7           Fe  tau(   7) = (  -1.4162494   1.4162494  -1.4162594  )
         8           Fe  tau(   8) = (  -1.4162494  -1.4162494  -1.4162594  )
         9           Fe  tau(   9) = (   0.0000000   0.0000000   0.0000000  )
        10           Fe  tau(  10) = (   0.0000000   2.8324989   0.0000000  )
        11           Fe  tau(  11) = (   2.8324989   0.0000000   0.0000000  )
        12           Fe  tau(  12) = (   2.8324989   2.8324989   0.0000000  )
        13           Fe  tau(  13) = (   1.4163571   1.4031191   1.3831661  )
        14           Fe  tau(  14) = (   1.4164319  -1.4025953   1.3832728  )
        15           Fe  tau(  15) = (  -1.4160267   1.4003327   1.4466428  )
        16           Fe  tau(  16) = (  -1.4159925  -1.4018894   1.4531748  )
        17           Fe  tau(  17) = (   0.0418177   0.0114402   2.9289505  )
        18           Fe  tau(  18) = (   0.0588943   2.8260425   2.8039321  )
        19           Fe  tau(  19) = (   2.7909006   0.0119231   2.9288138  )
        20           Fe  tau(  20) = (   2.7747251   2.8263038   2.8038596  )
        21           O   tau(  21) = (   1.4164409  -0.0641296   4.3586209  )
        22           H   tau(  22) = (   1.4169740   2.8067212   3.8588038  )
        23           H   tau(  23) = (   1.4165076  -0.9534879   4.7664620  )

   Crystallographic axes

     site n.     atom                  positions (cryst. coord.)
         1           Fe  tau(   1) = (  0.0000000  0.0000000 -0.1573610  )
         2           Fe  tau(   2) = ( -0.0000000  0.5000005 -0.1573610  )
         3           Fe  tau(   3) = (  0.5000005  0.0000000 -0.1573610  )
         4           Fe  tau(   4) = (  0.4999987  0.5000005 -0.1573610  )
         5           Fe  tau(   5) = (  0.2499994  0.2499994 -0.0786811  )
         6           Fe  tau(   6) = (  0.2499994 -0.2499994 -0.0786811  )
         7           Fe  tau(   7) = ( -0.2499994  0.2499994 -0.0786811  )
         8           Fe  tau(   8) = ( -0.2499994 -0.2499994 -0.0786811  )
         9           Fe  tau(   9) = (  0.0000000  0.0000000  0.0000000  )
        10           Fe  tau(  10) = ( -0.0000000  0.4999987  0.0000000  )
        11           Fe  tau(  11) = (  0.4999987  0.0000000  0.0000000  )
        12           Fe  tau(  12) = (  0.4999987  0.4999987  0.0000000  )
        13           Fe  tau(  13) = (  0.2500184  0.2476816  0.0768426  )
        14           Fe  tau(  14) = (  0.2500316 -0.2475891  0.0768485  )
        15           Fe  tau(  15) = ( -0.2499600  0.2471897  0.0803690  )
        16           Fe  tau(  16) = ( -0.2499540 -0.2474645  0.0807319  )
        17           Fe  tau(  17) = (  0.0073817  0.0020194  0.1627195  )
        18           Fe  tau(  18) = (  0.0103961  0.4988591  0.1557740  )
        19           Fe  tau(  19) = (  0.4926557  0.0021047  0.1627119  )
        20           Fe  tau(  20) = (  0.4898004  0.4989052  0.1557700  )
        21           O   tau(  21) = (  0.2500332 -0.0113203  0.2421456  )
        22           H   tau(  22) = (  0.2501273  0.4954484  0.2143780  )
        23           H   tau(  23) = (  0.2500449 -0.1683117  0.2648034  )

     number of k points=    20  Marzari-Vanderbilt smearing, width (Ry)=  0.0400
                       cart. coord. in units 2pi/alat
        k(    1) = (   0.0000000   0.0000000   0.0000000), wk =   0.0625000
        k(    2) = (   0.0000000   0.0441305   0.0000000), wk =   0.1250000
        k(    3) = (   0.0000000  -0.0882611   0.0000000), wk =   0.0625000
        k(    4) = (   0.0441305   0.0441305   0.0000000), wk =   0.1250000
        k(    5) = (   0.0441305  -0.0882611   0.0000000), wk =   0.1250000
        k(    6) = (  -0.0882611  -0.0882611   0.0000000), wk =   0.0625000
        k(    7) = (   0.0441305  -0.0000000   0.0000000), wk =   0.1250000
        k(    8) = (  -0.0882611   0.0000000   0.0000000), wk =   0.0625000
        k(    9) = (  -0.0441305   0.0441305   0.0000000), wk =   0.1250000
        k(   10) = (  -0.0882611   0.0441305   0.0000000), wk =   0.1250000
        k(   11) = (   0.0000000   0.0000000   0.0000000), wk =   0.0625000
        k(   12) = (   0.0000000   0.0441305   0.0000000), wk =   0.1250000
        k(   13) = (   0.0000000  -0.0882611   0.0000000), wk =   0.0625000
        k(   14) = (   0.0441305   0.0441305   0.0000000), wk =   0.1250000
        k(   15) = (   0.0441305  -0.0882611   0.0000000), wk =   0.1250000
        k(   16) = (  -0.0882611  -0.0882611   0.0000000), wk =   0.0625000
        k(   17) = (   0.0441305  -0.0000000   0.0000000), wk =   0.1250000
        k(   18) = (  -0.0882611   0.0000000   0.0000000), wk =   0.0625000
        k(   19) = (  -0.0441305   0.0441305   0.0000000), wk =   0.1250000
        k(   20) = (  -0.0882611   0.0441305   0.0000000), wk =   0.1250000

                       cryst. coord.
        k(    1) = (   0.0000000   0.0000000   0.0000000), wk =   0.0625000
        k(    2) = (   0.0000000   0.2500000   0.0000000), wk =   0.1250000
        k(    3) = (   0.0000000  -0.5000000   0.0000000), wk =   0.0625000
        k(    4) = (   0.2500000   0.2500000   0.0000000), wk =   0.1250000
        k(    5) = (   0.2500000  -0.5000000   0.0000000), wk =   0.1250000
        k(    6) = (  -0.5000000  -0.5000000   0.0000000), wk =   0.0625000
        k(    7) = (   0.2500000   0.0000000   0.0000000), wk =   0.1250000
        k(    8) = (  -0.5000000  -0.0000000   0.0000000), wk =   0.0625000
        k(    9) = (  -0.2500000   0.2500000   0.0000000), wk =   0.1250000
        k(   10) = (  -0.5000000   0.2500000   0.0000000), wk =   0.1250000
        k(   11) = (   0.0000000   0.0000000   0.0000000), wk =   0.0625000
        k(   12) = (   0.0000000   0.2500000   0.0000000), wk =   0.1250000
        k(   13) = (   0.0000000  -0.5000000   0.0000000), wk =   0.0625000
        k(   14) = (   0.2500000   0.2500000   0.0000000), wk =   0.1250000
        k(   15) = (   0.2500000  -0.5000000   0.0000000), wk =   0.1250000
        k(   16) = (  -0.5000000  -0.5000000   0.0000000), wk =   0.0625000
        k(   17) = (   0.2500000   0.0000000   0.0000000), wk =   0.1250000
        k(   18) = (  -0.5000000  -0.0000000   0.0000000), wk =   0.0625000
        k(   19) = (  -0.2500000   0.2500000   0.0000000), wk =   0.1250000
        k(   20) = (  -0.5000000   0.2500000   0.0000000), wk =   0.1250000

     Dense  grid:  1489451 G-vectors     FFT dimensions: ( 100, 100, 320)

     Smooth grid:   487579 G-vectors     FFT dimensions: (  72,  72, 216)

     Largest allocated arrays     est. size (Mb)     dimensions
        Kohn-Sham Wavefunctions        15.74 Mb     (   5107,  202)
        Atomic wavefunctions           20.73 Mb     (   5107,  266)
        NL pseudopotentials            28.99 Mb     (   5107,  372)
        Each V/rho on FFT grid          8.24 Mb     ( 270000,   2)
        Each G-vector array             0.95 Mb     ( 124120)
        G-vector shells                 0.34 Mb     (  44791)
     Largest temporary arrays     est. size (Mb)     dimensions
        Auxiliary wavefunctions        62.96 Mb     (   5107,  808)
        Each subspace H/S matrix        2.49 Mb     ( 404, 404)
        Each <psi_i|beta_j> matrix      1.15 Mb     (    372,  202)
        Arrays for rho mixing          32.96 Mb     ( 270000,   8)

     Check: negative/imaginary core charge=   -0.000011    0.000000

     Initial potential from superposition of free atoms

     starting charge  327.99121, renormalised to  328.00000

     negative rho (up, down):  0.359E-04 0.990E-05
 --- in v_hubbard ---
Hubbard energy    0.0000
 -------
     Number of +U iterations with fixed ns =  0
     Starting occupations:
 --- enter write_ns ---
 LDA+U parameters:
U( 1)     =  0.00000000
alpha( 1) =  0.00000000
atom    1   Tr[ns(na)] (up, down, total) =   5.00000  1.00000  6.00000
   spin  1
    eigenvalues: 
  1.000  1.000  1.000  1.000  1.000
    eigenvectors:
  1.000  0.000  0.000  0.000  0.000
  0.000  1.000  0.000  0.000  0.000
  0.000  0.000  1.000  0.000  0.000
  0.000  0.000  0.000  1.000  0.000
  0.000  0.000  0.000  0.000  1.000
    occupations:
  1.000  0.000  0.000  0.000  0.000
  0.000  1.000  0.000  0.000  0.000
  0.000  0.000  1.000  0.000  0.000
  0.000  0.000  0.000  1.000  0.000
  0.000  0.000  0.000  0.000  1.000
   spin  2
    eigenvalues: 
  0.200  0.200  0.200  0.200  0.200
    eigenvectors:
  1.000  0.000  0.000  0.000  0.000
  0.000  1.000  0.000  0.000  0.000
  0.000  0.000  1.000  0.000  0.000
  0.000  0.000  0.000  1.000  0.000
  0.000  0.000  0.000  0.000  1.000
    occupations:
  0.200  0.000  0.000  0.000  0.000
  0.000  0.200  0.000  0.000  0.000
  0.000  0.000  0.200  0.000  0.000
  0.000  0.000  0.000  0.200  0.000
  0.000  0.000  0.000  0.000  0.200
atomic mag. moment =     4.000000
atom    2   Tr[ns(na)] (up, down, total) =   5.00000  1.00000  6.00000
   spin  1
    eigenvalues: 
  1.000  1.000  1.000  1.000  1.000
    eigenvectors:
  1.000  0.000  0.000  0.000  0.000
  0.000  1.000  0.000  0.000  0.000
  0.000  0.000  1.000  0.000  0.000
  0.000  0.000  0.000  1.000  0.000
  0.000  0.000  0.000  0.000  1.000
    occupations:
  1.000  0.000  0.000  0.000  0.000
  0.000  1.000  0.000  0.000  0.000
  0.000  0.000  1.000  0.000  0.000
  0.000  0.000  0.000  1.000  0.000
  0.000  0.000  0.000  0.000  1.000
   spin  2
    eigenvalues: 
  0.200  0.200  0.200  0.200  0.200
    eigenvectors:
  1.000  0.000  0.000  0.000  0.000
  0.000  1.000  0.000  0.000  0.000
  0.000  0.000  1.000  0.000  0.000
  0.000  0.000  0.000  1.000  0.000
  0.000  0.000  0.000  0.000  1.000
    occupations:
  0.200  0.000  0.000  0.000  0.000
  0.000  0.200  0.000  0.000  0.000
  0.000  0.000  0.200  0.000  0.000
  0.000  0.000  0.000  0.200  0.000
  0.000  0.000  0.000  0.000  0.200
atomic mag. moment =     4.000000
atom    3   Tr[ns(na)] (up, down, total) =   5.00000  1.00000  6.00000
   spin  1
    eigenvalues: 
  1.000  1.000  1.000  1.000  1.000
    eigenvectors:
  1.000  0.000  0.000  0.000  0.000
  0.000  1.000  0.000  0.000  0.000
  0.000  0.000  1.000  0.000  0.000
  0.000  0.000  0.000  1.000  0.000
  0.000  0.000  0.000  0.000  1.000
    occupations:
  1.000  0.000  0.000  0.000  0.000
  0.000  1.000  0.000  0.000  0.000
  0.000  0.000  1.000  0.000  0.000
  0.000  0.000  0.000  1.000  0.000
  0.000  0.000  0.000  0.000  1.000
   spin  2
    eigenvalues: 
  0.200  0.200  0.200  0.200  0.200
    eigenvectors:
  1.000  0.000  0.000  0.000  0.000
  0.000  1.000  0.000  0.000  0.000
  0.000  0.000  1.000  0.000  0.000
  0.000  0.000  0.000  1.000  0.000
  0.000  0.000  0.000  0.000  1.000
    occupations:
  0.200  0.000  0.000  0.000  0.000
  0.000  0.200  0.000  0.000  0.000
  0.000  0.000  0.200  0.000  0.000
  0.000  0.000  0.000  0.200  0.000
  0.000  0.000  0.000  0.000  0.200
atomic mag. moment =     4.000000
atom    4   Tr[ns(na)] (up, down, total) =   5.00000  1.00000  6.00000
   spin  1
    eigenvalues: 
  1.000  1.000  1.000  1.000  1.000
    eigenvectors:
  1.000  0.000  0.000  0.000  0.000
  0.000  1.000  0.000  0.000  0.000
  0.000  0.000  1.000  0.000  0.000
  0.000  0.000  0.000  1.000  0.000
  0.000  0.000  0.000  0.000  1.000
    occupations:
  1.000  0.000  0.000  0.000  0.000
  0.000  1.000  0.000  0.000  0.000
  0.000  0.000  1.000  0.000  0.000
  0.000  0.000  0.000  1.000  0.000
  0.000  0.000  0.000  0.000  1.000
   spin  2
    eigenvalues: 
  0.200  0.200  0.200  0.200  0.200
    eigenvectors:
  1.000  0.000  0.000  0.000  0.000
  0.000  1.000  0.000  0.000  0.000
  0.000  0.000  1.000  0.000  0.000
  0.000  0.000  0.000  1.000  0.000
  0.000  0.000  0.000  0.000  1.000
    occupations:
  0.200  0.000  0.000  0.000  0.000
  0.000  0.200  0.000  0.000  0.000
  0.000  0.000  0.200  0.000  0.000
  0.000  0.000  0.000  0.200  0.000
  0.000  0.000  0.000  0.000  0.200
atomic mag. moment =     4.000000
atom    5   Tr[ns(na)] (up, down, total) =   5.00000  1.00000  6.00000
   spin  1
    eigenvalues: 
  1.000  1.000  1.000  1.000  1.000
    eigenvectors:
  1.000  0.000  0.000  0.000  0.000
  0.000  1.000  0.000  0.000  0.000
  0.000  0.000  1.000  0.000  0.000
  0.000  0.000  0.000  1.000  0.000
  0.000  0.000  0.000  0.000  1.000
    occupations:
  1.000  0.000  0.000  0.000  0.000
  0.000  1.000  0.000  0.000  0.000
  0.000  0.000  1.000  0.000  0.000
  0.000  0.000  0.000  1.000  0.000
  0.000  0.000  0.000  0.000  1.000
   spin  2
    eigenvalues: 
  0.200  0.200  0.200  0.200  0.200
    eigenvectors:
  1.000  0.000  0.000  0.000  0.000
  0.000  1.000  0.000  0.000  0.000
  0.000  0.000  1.000  0.000  0.000
  0.000  0.000  0.000  1.000  0.000
  0.000  0.000  0.000  0.000  1.000
    occupations:
  0.200  0.000  0.000  0.000  0.000
  0.000  0.200  0.000  0.000  0.000
  0.000  0.000  0.200  0.000  0.000
  0.000  0.000  0.000  0.200  0.000
  0.000  0.000  0.000  0.000  0.200
atomic mag. moment =     4.000000
atom    6   Tr[ns(na)] (up, down, total) =   5.00000  1.00000  6.00000
   spin  1
    eigenvalues: 
  1.000  1.000  1.000  1.000  1.000
    eigenvectors:
  1.000  0.000  0.000  0.000  0.000
  0.000  1.000  0.000  0.000  0.000
  0.000  0.000  1.000  0.000  0.000
  0.000  0.000  0.000  1.000  0.000
  0.000  0.000  0.000  0.000  1.000
    occupations:
  1.000  0.000  0.000  0.000  0.000
  0.000  1.000  0.000  0.000  0.000
  0.000  0.000  1.000  0.000  0.000
  0.000  0.000  0.000  1.000  0.000
  0.000  0.000  0.000  0.000  1.000
   spin  2
    eigenvalues: 
  0.200  0.200  0.200  0.200  0.200
    eigenvectors:
  1.000  0.000  0.000  0.000  0.000
  0.000  1.000  0.000  0.000  0.000
  0.000  0.000  1.000  0.000  0.000
  0.000  0.000  0.000  1.000  0.000
  0.000  0.000  0.000  0.000  1.000
    occupations:
  0.200  0.000  0.000  0.000  0.000
  0.000  0.200  0.000  0.000  0.000
  0.000  0.000  0.200  0.000  0.000
  0.000  0.000  0.000  0.200  0.000
  0.000  0.000  0.000  0.000  0.200
atomic mag. moment =     4.000000
atom    7   Tr[ns(na)] (up, down, total) =   5.00000  1.00000  6.00000
   spin  1
    eigenvalues: 
  1.000  1.000  1.000  1.000  1.000
    eigenvectors:
  1.000  0.000  0.000  0.000  0.000
  0.000  1.000  0.000  0.000  0.000
  0.000  0.000  1.000  0.000  0.000
  0.000  0.000  0.000  1.000  0.000
  0.000  0.000  0.000  0.000  1.000
    occupations:
  1.000  0.000  0.000  0.000  0.000
  0.000  1.000  0.000  0.000  0.000
  0.000  0.000  1.000  0.000  0.000
  0.000  0.000  0.000  1.000  0.000
  0.000  0.000  0.000  0.000  1.000
   spin  2
    eigenvalues: 
  0.200  0.200  0.200  0.200  0.200
    eigenvectors:
  1.000  0.000  0.000  0.000  0.000
  0.000  1.000  0.000  0.000  0.000
  0.000  0.000  1.000  0.000  0.000
  0.000  0.000  0.000  1.000  0.000
  0.000  0.000  0.000  0.000  1.000
    occupations:
  0.200  0.000  0.000  0.000  0.000
  0.000  0.200  0.000  0.000  0.000
  0.000  0.000  0.200  0.000  0.000
  0.000  0.000  0.000  0.200  0.000
  0.000  0.000  0.000  0.000  0.200
atomic mag. moment =     4.000000
atom    8   Tr[ns(na)] (up, down, total) =   5.00000  1.00000  6.00000
   spin  1
    eigenvalues: 
  1.000  1.000  1.000  1.000  1.000
    eigenvectors:
  1.000  0.000  0.000  0.000  0.000
  0.000  1.000  0.000  0.000  0.000
  0.000  0.000  1.000  0.000  0.000
  0.000  0.000  0.000  1.000  0.000
  0.000  0.000  0.000  0.000  1.000
    occupations:
  1.000  0.000  0.000  0.000  0.000
  0.000  1.000  0.000  0.000  0.000
  0.000  0.000  1.000  0.000  0.000
  0.000  0.000  0.000  1.000  0.000
  0.000  0.000  0.000  0.000  1.000
   spin  2
    eigenvalues: 
  0.200  0.200  0.200  0.200  0.200
    eigenvectors:
  1.000  0.000  0.000  0.000  0.000
  0.000  1.000  0.000  0.000  0.000
  0.000  0.000  1.000  0.000  0.000
  0.000  0.000  0.000  1.000  0.000
  0.000  0.000  0.000  0.000  1.000
    occupations:
  0.200  0.000  0.000  0.000  0.000
  0.000  0.200  0.000  0.000  0.000
  0.000  0.000  0.200  0.000  0.000
  0.000  0.000  0.000  0.200  0.000
  0.000  0.000  0.000  0.000  0.200
atomic mag. moment =     4.000000
atom    9   Tr[ns(na)] (up, down, total) =   5.00000  1.00000  6.00000
   spin  1
    eigenvalues: 
  1.000  1.000  1.000  1.000  1.000
    eigenvectors:
  1.000  0.000  0.000  0.000  0.000
  0.000  1.000  0.000  0.000  0.000
  0.000  0.000  1.000  0.000  0.000
  0.000  0.000  0.000  1.000  0.000
  0.000  0.000  0.000  0.000  1.000
    occupations:
  1.000  0.000  0.000  0.000  0.000
  0.000  1.000  0.000  0.000  0.000
  0.000  0.000  1.000  0.000  0.000
  0.000  0.000  0.000  1.000  0.000
  0.000  0.000  0.000  0.000  1.000
   spin  2
    eigenvalues: 
  0.200  0.200  0.200  0.200  0.200
    eigenvectors:
  1.000  0.000  0.000  0.000  0.000
  0.000  1.000  0.000  0.000  0.000
  0.000  0.000  1.000  0.000  0.000
  0.000  0.000  0.000  1.000  0.000
  0.000  0.000  0.000  0.000  1.000
    occupations:
  0.200  0.000  0.000  0.000  0.000
  0.000  0.200  0.000  0.000  0.000
  0.000  0.000  0.200  0.000  0.000
  0.000  0.000  0.000  0.200  0.000
  0.000  0.000  0.000  0.000  0.200
atomic mag. moment =     4.000000
atom   10   Tr[ns(na)] (up, down, total) =   5.00000  1.00000  6.00000
   spin  1
    eigenvalues: 
  1.000  1.000  1.000  1.000  1.000
    eigenvectors:
  1.000  0.000  0.000  0.000  0.000
  0.000  1.000  0.000  0.000  0.000
  0.000  0.000  1.000  0.000  0.000
  0.000  0.000  0.000  1.000  0.000
  0.000  0.000  0.000  0.000  1.000
    occupations:
  1.000  0.000  0.000  0.000  0.000
  0.000  1.000  0.000  0.000  0.000
  0.000  0.000  1.000  0.000  0.000
  0.000  0.000  0.000  1.000  0.000
  0.000  0.000  0.000  0.000  1.000
   spin  2
    eigenvalues: 
  0.200  0.200  0.200  0.200  0.200
    eigenvectors:
  1.000  0.000  0.000  0.000  0.000
  0.000  1.000  0.000  0.000  0.000
  0.000  0.000  1.000  0.000  0.000
  0.000  0.000  0.000  1.000  0.000
  0.000  0.000  0.000  0.000  1.000
    occupations:
  0.200  0.000  0.000  0.000  0.000
  0.000  0.200  0.000  0.000  0.000
  0.000  0.000  0.200  0.000  0.000
  0.000  0.000  0.000  0.200  0.000
  0.000  0.000  0.000  0.000  0.200
atomic mag. moment =     4.000000
atom   11   Tr[ns(na)] (up, down, total) =   5.00000  1.00000  6.00000
   spin  1
    eigenvalues: 
  1.000  1.000  1.000  1.000  1.000
    eigenvectors:
  1.000  0.000  0.000  0.000  0.000
  0.000  1.000  0.000  0.000  0.000
  0.000  0.000  1.000  0.000  0.000
  0.000  0.000  0.000  1.000  0.000
  0.000  0.000  0.000  0.000  1.000
    occupations:
  1.000  0.000  0.000  0.000  0.000
  0.000  1.000  0.000  0.000  0.000
  0.000  0.000  1.000  0.000  0.000
  0.000  0.000  0.000  1.000  0.000
  0.000  0.000  0.000  0.000  1.000
   spin  2
    eigenvalues: 
  0.200  0.200  0.200  0.200  0.200
    eigenvectors:
  1.000  0.000  0.000  0.000  0.000
  0.000  1.000  0.000  0.000  0.000
  0.000  0.000  1.000  0.000  0.000
  0.000  0.000  0.000  1.000  0.000
  0.000  0.000  0.000  0.000  1.000
    occupations:
  0.200  0.000  0.000  0.000  0.000
  0.000  0.200  0.000  0.000  0.000
  0.000  0.000  0.200  0.000  0.000
  0.000  0.000  0.000  0.200  0.000
  0.000  0.000  0.000  0.000  0.200
atomic mag. moment =     4.000000
atom   12   Tr[ns(na)] (up, down, total) =   5.00000  1.00000  6.00000
   spin  1
    eigenvalues: 
  1.000  1.000  1.000  1.000  1.000
    eigenvectors:
  1.000  0.000  0.000  0.000  0.000
  0.000  1.000  0.000  0.000  0.000
  0.000  0.000  1.000  0.000  0.000
  0.000  0.000  0.000  1.000  0.000
  0.000  0.000  0.000  0.000  1.000
    occupations:
  1.000  0.000  0.000  0.000  0.000
  0.000  1.000  0.000  0.000  0.000
  0.000  0.000  1.000  0.000  0.000
  0.000  0.000  0.000  1.000  0.000
  0.000  0.000  0.000  0.000  1.000
   spin  2
    eigenvalues: 
  0.200  0.200  0.200  0.200  0.200
    eigenvectors:
  1.000  0.000  0.000  0.000  0.000
  0.000  1.000  0.000  0.000  0.000
  0.000  0.000  1.000  0.000  0.000
  0.000  0.000  0.000  1.000  0.000
  0.000  0.000  0.000  0.000  1.000
    occupations:
  0.200  0.000  0.000  0.000  0.000
  0.000  0.200  0.000  0.000  0.000
  0.000  0.000  0.200  0.000  0.000
  0.000  0.000  0.000  0.200  0.000
  0.000  0.000  0.000  0.000  0.200
atomic mag. moment =     4.000000
atom   13   Tr[ns(na)] (up, down, total) =   5.00000  1.00000  6.00000
   spin  1
    eigenvalues: 
  1.000  1.000  1.000  1.000  1.000
    eigenvectors:
  1.000  0.000  0.000  0.000  0.000
  0.000  1.000  0.000  0.000  0.000
  0.000  0.000  1.000  0.000  0.000
  0.000  0.000  0.000  1.000  0.000
  0.000  0.000  0.000  0.000  1.000
    occupations:
  1.000  0.000  0.000  0.000  0.000
  0.000  1.000  0.000  0.000  0.000
  0.000  0.000  1.000  0.000  0.000
  0.000  0.000  0.000  1.000  0.000
  0.000  0.000  0.000  0.000  1.000
   spin  2
    eigenvalues: 
  0.200  0.200  0.200  0.200  0.200
    eigenvectors:
  1.000  0.000  0.000  0.000  0.000
  0.000  1.000  0.000  0.000  0.000
  0.000  0.000  1.000  0.000  0.000
  0.000  0.000  0.000  1.000  0.000
  0.000  0.000  0.000  0.000  1.000
    occupations:
  0.200  0.000  0.000  0.000  0.000
  0.000  0.200  0.000  0.000  0.000
  0.000  0.000  0.200  0.000  0.000
  0.000  0.000  0.000  0.200  0.000
  0.000  0.000  0.000  0.000  0.200
atomic mag. moment =     4.000000
atom   14   Tr[ns(na)] (up, down, total) =   5.00000  1.00000  6.00000
   spin  1
    eigenvalues: 
  1.000  1.000  1.000  1.000  1.000
    eigenvectors:
  1.000  0.000  0.000  0.000  0.000
  0.000  1.000  0.000  0.000  0.000
  0.000  0.000  1.000  0.000  0.000
  0.000  0.000  0.000  1.000  0.000
  0.000  0.000  0.000  0.000  1.000
    occupations:
  1.000  0.000  0.000  0.000  0.000
  0.000  1.000  0.000  0.000  0.000
  0.000  0.000  1.000  0.000  0.000
  0.000  0.000  0.000  1.000  0.000
  0.000  0.000  0.000  0.000  1.000
   spin  2
    eigenvalues: 
  0.200  0.200  0.200  0.200  0.200
    eigenvectors:
  1.000  0.000  0.000  0.000  0.000
  0.000  1.000  0.000  0.000  0.000
  0.000  0.000  1.000  0.000  0.000
  0.000  0.000  0.000  1.000  0.000
  0.000  0.000  0.000  0.000  1.000
    occupations:
  0.200  0.000  0.000  0.000  0.000
  0.000  0.200  0.000  0.000  0.000
  0.000  0.000  0.200  0.000  0.000
  0.000  0.000  0.000  0.200  0.000
  0.000  0.000  0.000  0.000  0.200
atomic mag. moment =     4.000000
atom   15   Tr[ns(na)] (up, down, total) =   5.00000  1.00000  6.00000
   spin  1
    eigenvalues: 
  1.000  1.000  1.000  1.000  1.000
    eigenvectors:
  1.000  0.000  0.000  0.000  0.000
  0.000  1.000  0.000  0.000  0.000
  0.000  0.000  1.000  0.000  0.000
  0.000  0.000  0.000  1.000  0.000
  0.000  0.000  0.000  0.000  1.000
    occupations:
  1.000  0.000  0.000  0.000  0.000
  0.000  1.000  0.000  0.000  0.000
  0.000  0.000  1.000  0.000  0.000
  0.000  0.000  0.000  1.000  0.000
  0.000  0.000  0.000  0.000  1.000
   spin  2
    eigenvalues: 
  0.200  0.200  0.200  0.200  0.200
    eigenvectors:
  1.000  0.000  0.000  0.000  0.000
  0.000  1.000  0.000  0.000  0.000
  0.000  0.000  1.000  0.000  0.000
  0.000  0.000  0.000  1.000  0.000
  0.000  0.000  0.000  0.000  1.000
    occupations:
  0.200  0.000  0.000  0.000  0.000
  0.000  0.200  0.000  0.000  0.000
  0.000  0.000  0.200  0.000  0.000
  0.000  0.000  0.000  0.200  0.000
  0.000  0.000  0.000  0.000  0.200
atomic mag. moment =     4.000000
atom   16   Tr[ns(na)] (up, down, total) =   5.00000  1.00000  6.00000
   spin  1
    eigenvalues: 
  1.000  1.000  1.000  1.000  1.000
    eigenvectors:
  1.000  0.000  0.000  0.000  0.000
  0.000  1.000  0.000  0.000  0.000
  0.000  0.000  1.000  0.000  0.000
  0.000  0.000  0.000  1.000  0.000
  0.000  0.000  0.000  0.000  1.000
    occupations:
  1.000  0.000  0.000  0.000  0.000
  0.000  1.000  0.000  0.000  0.000
  0.000  0.000  1.000  0.000  0.000
  0.000  0.000  0.000  1.000  0.000
  0.000  0.000  0.000  0.000  1.000
   spin  2
    eigenvalues: 
  0.200  0.200  0.200  0.200  0.200
    eigenvectors:
  1.000  0.000  0.000  0.000  0.000
  0.000  1.000  0.000  0.000  0.000
  0.000  0.000  1.000  0.000  0.000
  0.000  0.000  0.000  1.000  0.000
  0.000  0.000  0.000  0.000  1.000
    occupations:
  0.200  0.000  0.000  0.000  0.000
  0.000  0.200  0.000  0.000  0.000
  0.000  0.000  0.200  0.000  0.000
  0.000  0.000  0.000  0.200  0.000
  0.000  0.000  0.000  0.000  0.200
atomic mag. moment =     4.000000
atom   17   Tr[ns(na)] (up, down, total) =   5.00000  1.00000  6.00000
   spin  1
    eigenvalues: 
  1.000  1.000  1.000  1.000  1.000
    eigenvectors:
  1.000  0.000  0.000  0.000  0.000
  0.000  1.000  0.000  0.000  0.000
  0.000  0.000  1.000  0.000  0.000
  0.000  0.000  0.000  1.000  0.000
  0.000  0.000  0.000  0.000  1.000
    occupations:
  1.000  0.000  0.000  0.000  0.000
  0.000  1.000  0.000  0.000  0.000
  0.000  0.000  1.000  0.000  0.000
  0.000  0.000  0.000  1.000  0.000
  0.000  0.000  0.000  0.000  1.000
   spin  2
    eigenvalues: 
  0.200  0.200  0.200  0.200  0.200
    eigenvectors:
  1.000  0.000  0.000  0.000  0.000
  0.000  1.000  0.000  0.000  0.000
  0.000  0.000  1.000  0.000  0.000
  0.000  0.000  0.000  1.000  0.000
  0.000  0.000  0.000  0.000  1.000
    occupations:
  0.200  0.000  0.000  0.000  0.000
  0.000  0.200  0.000  0.000  0.000
  0.000  0.000  0.200  0.000  0.000
  0.000  0.000  0.000  0.200  0.000
  0.000  0.000  0.000  0.000  0.200
atomic mag. moment =     4.000000
atom   18   Tr[ns(na)] (up, down, total) =   5.00000  1.00000  6.00000
   spin  1
    eigenvalues: 
  1.000  1.000  1.000  1.000  1.000
    eigenvectors:
  1.000  0.000  0.000  0.000  0.000
  0.000  1.000  0.000  0.000  0.000
  0.000  0.000  1.000  0.000  0.000
  0.000  0.000  0.000  1.000  0.000
  0.000  0.000  0.000  0.000  1.000
    occupations:
  1.000  0.000  0.000  0.000  0.000
  0.000  1.000  0.000  0.000  0.000
  0.000  0.000  1.000  0.000  0.000
  0.000  0.000  0.000  1.000  0.000
  0.000  0.000  0.000  0.000  1.000
   spin  2
    eigenvalues: 
  0.200  0.200  0.200  0.200  0.200
    eigenvectors:
  1.000  0.000  0.000  0.000  0.000
  0.000  1.000  0.000  0.000  0.000
  0.000  0.000  1.000  0.000  0.000
  0.000  0.000  0.000  1.000  0.000
  0.000  0.000  0.000  0.000  1.000
    occupations:
  0.200  0.000  0.000  0.000  0.000
  0.000  0.200  0.000  0.000  0.000
  0.000  0.000  0.200  0.000  0.000
  0.000  0.000  0.000  0.200  0.000
  0.000  0.000  0.000  0.000  0.200
atomic mag. moment =     4.000000
atom   19   Tr[ns(na)] (up, down, total) =   5.00000  1.00000  6.00000
   spin  1
    eigenvalues: 
  1.000  1.000  1.000  1.000  1.000
    eigenvectors:
  1.000  0.000  0.000  0.000  0.000
  0.000  1.000  0.000  0.000  0.000
  0.000  0.000  1.000  0.000  0.000
  0.000  0.000  0.000  1.000  0.000
  0.000  0.000  0.000  0.000  1.000
    occupations:
  1.000  0.000  0.000  0.000  0.000
  0.000  1.000  0.000  0.000  0.000
  0.000  0.000  1.000  0.000  0.000
  0.000  0.000  0.000  1.000  0.000
  0.000  0.000  0.000  0.000  1.000
   spin  2
    eigenvalues: 
  0.200  0.200  0.200  0.200  0.200
    eigenvectors:
  1.000  0.000  0.000  0.000  0.000
  0.000  1.000  0.000  0.000  0.000
  0.000  0.000  1.000  0.000  0.000
  0.000  0.000  0.000  1.000  0.000
  0.000  0.000  0.000  0.000  1.000
    occupations:
  0.200  0.000  0.000  0.000  0.000
  0.000  0.200  0.000  0.000  0.000
  0.000  0.000  0.200  0.000  0.000
  0.000  0.000  0.000  0.200  0.000
  0.000  0.000  0.000  0.000  0.200
atomic mag. moment =     4.000000
atom   20   Tr[ns(na)] (up, down, total) =   5.00000  1.00000  6.00000
   spin  1
    eigenvalues: 
  1.000  1.000  1.000  1.000  1.000
    eigenvectors:
  1.000  0.000  0.000  0.000  0.000
  0.000  1.000  0.000  0.000  0.000
  0.000  0.000  1.000  0.000  0.000
  0.000  0.000  0.000  1.000  0.000
  0.000  0.000  0.000  0.000  1.000
    occupations:
  1.000  0.000  0.000  0.000  0.000
  0.000  1.000  0.000  0.000  0.000
  0.000  0.000  1.000  0.000  0.000
  0.000  0.000  0.000  1.000  0.000
  0.000  0.000  0.000  0.000  1.000
   spin  2
    eigenvalues: 
  0.200  0.200  0.200  0.200  0.200
    eigenvectors:
  1.000  0.000  0.000  0.000  0.000
  0.000  1.000  0.000  0.000  0.000
  0.000  0.000  1.000  0.000  0.000
  0.000  0.000  0.000  1.000  0.000
  0.000  0.000  0.000  0.000  1.000
    occupations:
  0.200  0.000  0.000  0.000  0.000
  0.000  0.200  0.000  0.000  0.000
  0.000  0.000  0.200  0.000  0.000
  0.000  0.000  0.000  0.200  0.000
  0.000  0.000  0.000  0.000  0.200
atomic mag. moment =     4.000000
N of occupied +U levels = 120.0000000
 --- exit write_ns ---
 Atomic wfc used for LDA+U Projector are NOT orthogonalized
     Starting wfc are  266 randomized atomic wfcs
     Checking if some PAW data can be deallocated... 
       node    0, deallocated PAW data for type:  2
       node    0, deallocated PAW data for type:  3
       node    1, deallocated PAW data for type:  2
       node    1, deallocated PAW data for type:  3
       node    2, deallocated PAW data for type:  2
       node    2, deallocated PAW data for type:  3
       node    3, deallocated PAW data for type:  2
       node    3, deallocated PAW data for type:  3
       node    4, deallocated PAW data for type:  2
       node    4, deallocated PAW data for type:  3
       node    5, deallocated PAW data for type:  2
       node    5, deallocated PAW data for type:  3
       node    6, deallocated PAW data for type:  2
       node    6, deallocated PAW data for type:  3
       node    7, deallocated PAW data for type:  2
       node    7, deallocated PAW data for type:  3
       node    8, deallocated PAW data for type:  2
       node    8, deallocated PAW data for type:  3
       node    9, deallocated PAW data for type:  2
       node    9, deallocated PAW data for type:  3
       node   10, deallocated PAW data for type:  2
       node   10, deallocated PAW data for type:  3
       node   11, deallocated PAW data for type:  2
       node   11, deallocated PAW data for type:  3
       node   12, deallocated PAW data for type:  2
       node   12, deallocated PAW data for type:  3
       node   13, deallocated PAW data for type:  2
       node   13, deallocated PAW data for type:  3
       node   14, deallocated PAW data for type:  2
       node   14, deallocated PAW data for type:  3
       node   15, deallocated PAW data for type:  2
       node   15, deallocated PAW data for type:  3
       node   16, deallocated PAW data for type:  2
       node   16, deallocated PAW data for type:  3
       node   17, deallocated PAW data for type:  2
       node   17, deallocated PAW data for type:  3
       node   18, deallocated PAW data for type:  2
       node   18, deallocated PAW data for type:  3
       node   19, deallocated PAW data for type:  2
       node   19, deallocated PAW data for type:  3
       node   20, deallocated PAW data for type:  2
       node   20, deallocated PAW data for type:  3
       node   21, deallocated PAW data for type:  2
       node   21, deallocated PAW data for type:  3
       node   22, deallocated PAW data for type:  2
       node   22, deallocated PAW data for type:  3
       node   23, deallocated PAW data for type:  2
       node   23, deallocated PAW data for type:  3
       node   24, deallocated PAW data for type:  2
       node   24, deallocated PAW data for type:  3
       node   25, deallocated PAW data for type:  2
       node   25, deallocated PAW data for type:  3
       node   26, deallocated PAW data for type:  2
       node   26, deallocated PAW data for type:  3
       node   27, deallocated PAW data for type:  2
       node   27, deallocated PAW data for type:  3
       node   28, deallocated PAW data for type:  2
       node   28, deallocated PAW data for type:  3
       node   29, deallocated PAW data for type:  2
       node   29, deallocated PAW data for type:  3
       node   30, deallocated PAW data for type:  2
       node   30, deallocated PAW data for type:  3
       node   31, deallocated PAW data for type:  2
       node   31, deallocated PAW data for type:  3
       node   32, deallocated PAW data for type:  2
       node   32, deallocated PAW data for type:  3
       node   33, deallocated PAW data for type:  2
       node   33, deallocated PAW data for type:  3
       node   34, deallocated PAW data for type:  2
       node   34, deallocated PAW data for type:  3
       node   35, deallocated PAW data for type:  2
       node   35, deallocated PAW data for type:  3
       node   36, deallocated PAW data for type:  2
       node   36, deallocated PAW data for type:  3
       node   37, deallocated PAW data for type:  2
       node   37, deallocated PAW data for type:  3
       node   38, deallocated PAW data for type:  2
       node   38, deallocated PAW data for type:  3
       node   39, deallocated PAW data for type:  2
       node   39, deallocated PAW data for type:  3
       node   40, deallocated PAW data for type:  2
       node   40, deallocated PAW data for type:  3
       node   41, deallocated PAW data for type:  2
       node   41, deallocated PAW data for type:  3
       node   42, deallocated PAW data for type:  1
       node   42, deallocated PAW data for type:  3
       node   43, deallocated PAW data for type:  1
       node   43, deallocated PAW data for type:  3
       node   44, deallocated PAW data for type:  1
       node   44, deallocated PAW data for type:  2
       node   45, deallocated PAW data for type:  1
       node   45, deallocated PAW data for type:  2
       node   46, deallocated PAW data for type:  1
       node   46, deallocated PAW data for type:  2
       node   47, deallocated PAW data for type:  1
       node   47, deallocated PAW data for type:  2

     total cpu time spent up to now is       47.8 secs

     per-process dynamical memory:   375.5 Mb

     Self-consistent Calculation

     iteration #  1     ecut=    95.00 Ry     beta=0.50
     Davidson diagonalization with overlap
     ethr =  1.00E-02,  avg # of iterations =  3.0
 --- enter write_ns ---
 LDA+U parameters:
U( 1)     =  0.00000000
alpha( 1) =  0.00000000
atom    1   Tr[ns(na)] (up, down, total) =   4.98348  0.92194  5.90542
   spin  1
    eigenvalues: 
  0.996  0.996  0.997  0.997  0.997
    eigenvectors:
  0.991  0.006  0.000  0.000  0.003
  0.006  0.992  0.000  0.000  0.001
  0.000  0.000  0.999  0.000  0.000
  0.003  0.002  0.000  0.000  0.995
  0.000  0.000  0.000  0.999  0.000
    occupations:
  0.996 -0.000  0.000  0.000  0.000
 -0.000  0.996 -0.000 -0.000 -0.000
  0.000 -0.000  0.997 -0.000  0.000
  0.000 -0.000 -0.000  0.997  0.000
  0.000 -0.000  0.000  0.000  0.997
   spin  2
    eigenvalues: 
  0.171  0.171  0.176  0.200  0.203
    eigenvectors:
  0.000  0.000  0.000  0.996  0.003
  0.000  0.999  0.001  0.000  0.000
  1.000  0.000  0.000  0.000  0.000
  0.000  0.000  0.000  0.003  0.996
  0.000  0.001  0.999  0.000  0.000
    occupations:
  0.200  0.000  0.000  0.000 -0.000
  0.000  0.171  0.000 -0.000 -0.000
  0.000  0.000  0.171  0.000  0.000
  0.000 -0.000  0.000  0.203 -0.000
 -0.000 -0.000  0.000 -0.000  0.176
atomic mag. moment =     4.061538
atom    2   Tr[ns(na)] (up, down, total) =   4.98355  0.92311  5.90666
   spin  1
    eigenvalues: 
  0.996  0.996  0.996  0.997  0.997
    eigenvectors:
  0.991  0.008  0.000  0.000  0.001
  0.007  0.992  0.000  0.000  0.001
  0.000  0.000  0.999  0.000  0.000
  0.001  0.001  0.000  0.000  0.998
  0.000  0.000  0.000  1.000  0.000
    occupations:
  0.996 -0.000  0.000  0.000  0.000
 -0.000  0.996 -0.000  0.000 -0.000
  0.000 -0.000  0.996  0.000 -0.000
  0.000  0.000  0.000  0.997 -0.000
  0.000 -0.000 -0.000 -0.000  0.997
   spin  2
    eigenvalues: 
  0.171  0.172  0.176  0.200  0.204
    eigenvectors:
  0.000  0.000  0.000  0.978  0.022
  0.950  0.050  0.000  0.000  0.000
  0.049  0.944  0.007  0.000  0.000
  0.000  0.000  0.000  0.022  0.978
  0.001  0.006  0.993  0.000  0.000
    occupations:
  0.200  0.000 -0.000 -0.001  0.000
  0.000  0.171 -0.000 -0.000  0.000
 -0.000 -0.000  0.172 -0.000  0.000
 -0.001 -0.000 -0.000  0.204  0.000
  0.000  0.000  0.000  0.000  0.176
atomic mag. moment =     4.060440
atom    3   Tr[ns(na)] (up, down, total) =   4.98345  0.92141  5.90486
   spin  1
    eigenvalues: 
  0.996  0.996  0.997  0.997  0.997
    eigenvectors:
  0.983  0.013  0.000  0.000  0.004
  0.013  0.986  0.000  0.000  0.001
  0.000  0.000  0.999  0.000  0.000
  0.003  0.002  0.000  0.001  0.994
  0.000  0.000  0.000  0.998  0.001
    occupations:
  0.996  0.000  0.000  0.000  0.000
  0.000  0.996 -0.000  0.000  0.000
  0.000 -0.000  0.997  0.000 -0.000
  0.000  0.000  0.000  0.997  0.000
  0.000  0.000 -0.000  0.000  0.997
   spin  2
    eigenvalues: 
  0.171  0.171  0.176  0.200  0.203
    eigenvectors:
  0.000  0.000  0.000  0.999  0.001
  0.141  0.859  0.001  0.000  0.000
  0.857  0.139  0.004  0.000  0.000
  0.000  0.000  0.000  0.001  0.999
  0.003  0.002  0.995  0.000  0.000
    occupations:
  0.200 -0.000 -0.000 -0.000  0.000
 -0.000  0.171  0.000  0.000 -0.000
 -0.000  0.000  0.171 -0.000 -0.000
 -0.000  0.000 -0.000  0.203 -0.000
  0.000 -0.000 -0.000 -0.000  0.176
atomic mag. moment =     4.062035
atom    4   Tr[ns(na)] (up, down, total) =   4.98355  0.92160  5.90515
   spin  1
    eigenvalues: 
  0.996  0.996  0.996  0.997  0.997
    eigenvectors:
  0.995  0.003  0.000  0.000  0.001
  0.003  0.996  0.000  0.000  0.000
  0.000  0.000  1.000  0.000  0.000
  0.001  0.000  0.000  0.001  0.998
  0.000  0.000  0.000  0.999  0.001
    occupations:
  0.996  0.000 -0.000  0.000  0.000
  0.000  0.996  0.000 -0.000 -0.000
 -0.000  0.000  0.996  0.000 -0.000
  0.000 -0.000  0.000  0.997  0.000
  0.000 -0.000 -0.000  0.000  0.997
   spin  2
    eigenvalues: 
  0.171  0.172  0.176  0.200  0.204
    eigenvectors:
  0.000  0.000  0.000  0.997  0.003
  0.841  0.158  0.001  0.000  0.000
  0.156  0.837  0.007  0.000  0.000
  0.000  0.000  0.000  0.003  0.997
  0.003  0.004  0.992  0.000  0.000
    occupations:
  0.200 -0.000  0.000 -0.000  0.000
 -0.000  0.171 -0.000 -0.000  0.000
  0.000 -0.000  0.171 -0.000  0.000
 -0.000 -0.000 -0.000  0.204  0.000
  0.000  0.000  0.000  0.000  0.176
atomic mag. moment =     4.061945
atom    5   Tr[ns(na)] (up, down, total) =   4.98492  2.11746  7.10238
   spin  1
    eigenvalues: 
  0.997  0.997  0.997  0.997  0.998
    eigenvectors:
  0.000  0.000  0.000  0.470  0.530
  0.419  0.580  0.000  0.000  0.000
  0.000  0.000  0.999  0.000  0.000
  0.000  0.000  0.000  0.530  0.470
  0.580  0.420  0.000  0.000  0.000
    occupations:
  0.997  0.000  0.000  0.000 -0.000
  0.000  0.997 -0.000  0.000  0.000
  0.000 -0.000  0.997 -0.000  0.000
  0.000  0.000 -0.000  0.997  0.000
 -0.000  0.000  0.000  0.000  0.997
   spin  2
    eigenvalues: 
  0.380  0.396  0.444  0.448  0.450
    eigenvectors:
  0.998  0.002  0.000  0.000  0.000
  0.000  0.000  0.000  0.953  0.046
  0.000  0.000  0.001  0.046  0.953
  0.002  0.998  0.000  0.000  0.000
  0.000  0.000  0.999  0.001  0.000
    occupations:
  0.380 -0.000  0.000 -0.001  0.001
 -0.000  0.448 -0.000 -0.000 -0.000
  0.000 -0.000  0.450  0.000 -0.000
 -0.001 -0.000  0.000  0.396 -0.000
  0.001 -0.000 -0.000 -0.000  0.444
atomic mag. moment =     2.867463
atom    6   Tr[ns(na)] (up, down, total) =   4.98500  2.11893  7.10392
   spin  1
    eigenvalues: 
  0.997  0.997  0.997  0.997  0.998
    eigenvectors:
  0.000  0.000  0.000  0.450  0.550
  0.376  0.624  0.000  0.000  0.000
  0.001  0.001  0.998  0.000  0.000
  0.000  0.000  0.000  0.550  0.450
  0.623  0.375  0.001  0.000  0.000
    occupations:
  0.997 -0.000  0.000  0.000  0.000
 -0.000  0.997 -0.000  0.000 -0.000
  0.000 -0.000  0.997 -0.000  0.000
  0.000  0.000 -0.000  0.997  0.000
  0.000 -0.000  0.000  0.000  0.997
   spin  2
    eigenvalues: 
  0.379  0.396  0.445  0.448  0.451
    eigenvectors:
  1.000  0.000  0.000  0.000  0.000
  0.000  0.000  0.066  0.917  0.017
  0.000  0.000  0.004  0.023  0.973
  0.000  1.000  0.000  0.000  0.000
  0.000  0.000  0.930  0.060  0.010
    occupations:
  0.379  0.001 -0.000  0.000 -0.000
  0.001  0.448  0.000 -0.000 -0.001
 -0.000  0.000  0.451 -0.000 -0.000
  0.000 -0.000 -0.000  0.396 -0.000
 -0.000 -0.001 -0.000 -0.000  0.445
atomic mag. moment =     2.866071
atom    7   Tr[ns(na)] (up, down, total) =   4.98569  2.11574  7.10144
   spin  1
    eigenvalues: 
  0.997  0.997  0.997  0.997  0.998
    eigenvectors:
  0.000  0.000  0.000  0.003  0.997
  0.011  0.049  0.941  0.000  0.000
  0.000  0.946  0.049  0.005  0.000
  0.000  0.004  0.000  0.992  0.003
  0.989  0.001  0.010  0.000  0.000
    occupations:
  0.998 -0.000  0.000 -0.000  0.000
 -0.000  0.997 -0.000  0.000 -0.000
  0.000 -0.000  0.997  0.000 -0.000
 -0.000  0.000  0.000  0.997  0.000
  0.000 -0.000 -0.000  0.000  0.997
   spin  2
    eigenvalues: 
  0.375  0.394  0.446  0.449  0.452
    eigenvectors:
  1.000  0.000  0.000  0.000  0.000
  0.000  0.000  0.038  0.029  0.932
  0.000  0.000  0.021  0.958  0.021
  0.000  1.000  0.000  0.000  0.000
  0.000  0.000  0.941  0.013  0.047
    occupations:
  0.375 -0.000 -0.000 -0.000  0.000
 -0.000  0.452  0.000  0.000  0.001
 -0.000  0.000  0.449 -0.000  0.000
 -0.000  0.000 -0.000  0.394  0.000
  0.000  0.001  0.000  0.000  0.446
atomic mag. moment =     2.869951
atom    8   Tr[ns(na)] (up, down, total) =   4.98563  2.11457  7.10020
   spin  1
    eigenvalues: 
  0.996  0.997  0.997  0.997  0.998
    eigenvectors:
  0.000  0.000  0.000  0.004  0.996
  0.012  0.004  0.983  0.000  0.000
  0.001  0.992  0.004  0.003  0.000
  0.000  0.003  0.000  0.992  0.004
  0.987  0.000  0.012  0.000  0.000
    occupations:
  0.998  0.000 -0.000 -0.000  0.000
  0.000  0.997 -0.000 -0.000  0.000
 -0.000 -0.000  0.997 -0.000 -0.000
 -0.000 -0.000 -0.000  0.997  0.000
  0.000  0.000 -0.000  0.000  0.996
   spin  2
    eigenvalues: 
  0.374  0.394  0.446  0.449  0.451
    eigenvectors:
  1.000  0.000  0.000  0.000  0.000
  0.000  0.000  0.056  0.027  0.916
  0.000  0.000  0.000  0.972  0.028
  0.000  1.000  0.000  0.000  0.000
  0.000  0.000  0.944  0.001  0.055
    occupations:
  0.374  0.000 -0.000 -0.000 -0.000
  0.000  0.451 -0.000  0.000 -0.001
 -0.000 -0.000  0.449 -0.000  0.000
 -0.000  0.000 -0.000  0.394  0.000
 -0.000 -0.001  0.000  0.000  0.447
atomic mag. moment =     2.871068
atom    9   Tr[ns(na)] (up, down, total) =   4.98329  2.11280  7.09609
   spin  1
    eigenvalues: 
  0.996  0.996  0.996  0.997  0.998
    eigenvectors:
  0.002  0.000  0.000  0.001  0.997
  0.748  0.249  0.000  0.000  0.002
  0.013  0.029  0.959  0.000  0.000
  0.000  0.000  0.000  0.999  0.001
  0.237  0.721  0.041  0.000  0.000
    occupations:
  0.998 -0.000 -0.000 -0.000  0.000
 -0.000  0.996 -0.000  0.000  0.000
 -0.000 -0.000  0.996 -0.000  0.000
 -0.000  0.000 -0.000  0.997  0.000
  0.000  0.000  0.000  0.000  0.996
   spin  2
    eigenvalues: 
  0.342  0.369  0.458  0.464  0.479
    eigenvectors:
  0.999  0.000  0.000  0.001  0.000
  0.001  0.000  0.015  0.983  0.001
  0.000  0.000  0.841  0.015  0.143
  0.000  1.000  0.000  0.000  0.000
  0.000  0.000  0.143  0.001  0.856
    occupations:
  0.342  0.004  0.000 -0.000  0.000
  0.004  0.463 -0.000  0.002 -0.001
  0.000 -0.000  0.461 -0.000 -0.007
 -0.000  0.002 -0.000  0.369 -0.000
  0.000 -0.001 -0.007 -0.000  0.476
atomic mag. moment =     2.870485
atom   10   Tr[ns(na)] (up, down, total) =   4.98247  2.08541  7.06788
   spin  1
    eigenvalues: 
  0.996  0.996  0.996  0.997  0.997
    eigenvectors:
  0.000  0.001  0.000  0.349  0.651
  0.011  0.988  0.000  0.000  0.000
  0.156  0.002  0.842  0.000  0.000
  0.000  0.000  0.000  0.651  0.349
  0.833  0.010  0.158  0.000  0.000
    occupations:
  0.997  0.000 -0.000  0.000  0.000
  0.000  0.996  0.000 -0.000 -0.000
 -0.000  0.000  0.996 -0.000  0.000
  0.000 -0.000 -0.000  0.997 -0.000
  0.000 -0.000  0.000 -0.000  0.996
   spin  2
    eigenvalues: 
  0.348  0.366  0.447  0.448  0.476
    eigenvectors:
  0.998  0.002  0.000  0.000  0.000
  0.000  0.000  0.661  0.338  0.000
  0.000  0.000  0.279  0.531  0.190
  0.002  0.998  0.000  0.000  0.000
  0.000  0.000  0.059  0.131  0.810
    occupations:
  0.348  0.002 -0.001  0.001  0.000
  0.002  0.447 -0.000  0.001  0.000
 -0.001 -0.000  0.453  0.000 -0.011
  0.001  0.001  0.000  0.366 -0.000
  0.000  0.000 -0.011 -0.000  0.471
atomic mag. moment =     2.897062
atom   11   Tr[ns(na)] (up, down, total) =   4.98325  2.11562  7.09887
   spin  1
    eigenvalues: 
  0.996  0.996  0.996  0.997  0.998
    eigenvectors:
  0.002  0.000  0.000  0.000  0.998
  0.993  0.005  0.000  0.000  0.002
  0.000  0.036  0.964  0.000  0.000
  0.000  0.000  0.000  1.000  0.000
  0.006  0.959  0.035  0.000  0.000
    occupations:
  0.998  0.000 -0.000 -0.000 -0.000
  0.000  0.996 -0.000 -0.000  0.000
 -0.000 -0.000  0.996  0.000 -0.000
 -0.000 -0.000  0.000  0.997 -0.000
 -0.000  0.000 -0.000 -0.000  0.996
   spin  2
    eigenvalues: 
  0.342  0.369  0.458  0.465  0.480
    eigenvectors:
  0.999  0.000  0.000  0.001  0.000
  0.001  0.000  0.050  0.944  0.005
  0.000  0.000  0.828  0.055  0.117
  0.000  1.000  0.000  0.000  0.000
  0.000  0.000  0.122  0.000  0.878
    occupations:
  0.343 -0.004 -0.000 -0.000 -0.000
 -0.004  0.465  0.001 -0.001 -0.002
 -0.000  0.001  0.461 -0.000  0.007
 -0.000 -0.001 -0.000  0.369  0.000
 -0.000 -0.002  0.007  0.000  0.478
atomic mag. moment =     2.867629
atom   12   Tr[ns(na)] (up, down, total) =   4.98245  2.08130  7.06375
   spin  1
    eigenvalues: 
  0.996  0.996  0.996  0.997  0.997
    eigenvectors:
  0.000  0.000  0.000  0.233  0.766
  0.148  0.851  0.001  0.000  0.000
  0.126  0.015  0.859  0.000  0.000
  0.000  0.000  0.000  0.766  0.233
  0.726  0.133  0.141  0.000  0.000
    occupations:
  0.997 -0.000  0.000  0.000 -0.000
 -0.000  0.996 -0.000  0.000 -0.000
  0.000 -0.000  0.996  0.000 -0.000
  0.000  0.000  0.000  0.997  0.000
 -0.000 -0.000 -0.000  0.000  0.996
   spin  2
    eigenvalues: 
  0.348  0.366  0.446  0.447  0.475
    eigenvectors:
  0.997  0.003  0.000  0.000  0.000
  0.000  0.000  0.820  0.179  0.000
  0.000  0.000  0.142  0.686  0.172
  0.003  0.997  0.000  0.000  0.000
  0.000  0.000  0.037  0.135  0.828
    occupations:
  0.348 -0.002 -0.001  0.001 -0.000
 -0.002  0.446 -0.000 -0.001  0.001
 -0.001 -0.000  0.452  0.000  0.010
  0.001 -0.001  0.000  0.366  0.000
 -0.000  0.001  0.010  0.000  0.470
atomic mag. moment =     2.901148
atom   13   Tr[ns(na)] (up, down, total) =   4.98564  2.17864  7.16428
   spin  1
    eigenvalues: 
  0.997  0.997  0.997  0.997  0.998
    eigenvectors:
  0.000  0.000  0.009  0.004  0.987
  0.476  0.522  0.002  0.001  0.000
  0.001  0.001  0.917  0.070  0.012
  0.001  0.000  0.072  0.925  0.002
  0.523  0.477  0.000  0.000  0.000
    occupations:
  0.998  0.000 -0.000 -0.000  0.000
  0.000  0.997 -0.000 -0.000  0.000
 -0.000 -0.000  0.997  0.000 -0.000
 -0.000 -0.000  0.000  0.997  0.000
  0.000  0.000 -0.000  0.000  0.997
   spin  2
    eigenvalues: 
  0.383  0.395  0.442  0.476  0.483
    eigenvectors:
  0.936  0.061  0.000  0.000  0.002
  0.000  0.000  0.279  0.713  0.007
  0.002  0.002  0.000  0.010  0.986
  0.062  0.937  0.000  0.000  0.001
  0.000  0.000  0.721  0.276  0.003
    occupations:
  0.384 -0.001 -0.005  0.003  0.000
 -0.001  0.467 -0.000  0.000 -0.015
 -0.005 -0.000  0.482 -0.002  0.001
  0.003  0.000 -0.002  0.394  0.000
  0.000 -0.015  0.001  0.000  0.452
atomic mag. moment =     2.807007
atom   14   Tr[ns(na)] (up, down, total) =   4.98558  2.13505  7.12063
   spin  1
    eigenvalues: 
  0.997  0.997  0.997  0.997  0.998
    eigenvectors:
  0.000  0.003  0.004  0.004  0.989
  0.367  0.362  0.271  0.000  0.000
  0.000  0.408  0.504  0.079  0.009
  0.001  0.038  0.043  0.917  0.001
  0.632  0.189  0.179  0.000  0.000
    occupations:
  0.998 -0.000  0.000 -0.000 -0.000
 -0.000  0.997 -0.000  0.000 -0.000
  0.000 -0.000  0.997 -0.000  0.000
 -0.000  0.000 -0.000  0.997  0.000
 -0.000 -0.000  0.000  0.000  0.997
   spin  2
    eigenvalues: 
  0.369  0.392  0.434  0.467  0.473
    eigenvectors:
  0.958  0.034  0.000  0.000  0.008
  0.000  0.000  0.291  0.708  0.001
  0.006  0.002  0.000  0.001  0.990
  0.036  0.964  0.000  0.000  0.001
  0.000  0.000  0.708  0.291  0.001
    occupations:
  0.370 -0.000  0.009  0.004 -0.000
 -0.000  0.458 -0.000  0.000  0.015
  0.009 -0.000  0.472  0.002 -0.000
  0.004  0.000  0.002  0.391 -0.000
 -0.000  0.015 -0.000 -0.000  0.444
atomic mag. moment =     2.850534
atom   15   Tr[ns(na)] (up, down, total) =   4.98502  1.98959  6.97461
   spin  1
    eigenvalues: 
  0.996  0.997  0.997  0.997  0.998
    eigenvectors:
  0.000  0.002  0.000  0.000  0.998
  0.956  0.000  0.044  0.000  0.000
  0.000  0.990  0.000  0.009  0.002
  0.000  0.009  0.000  0.991  0.000
  0.044  0.000  0.956  0.000  0.000
    occupations:
  0.998  0.000 -0.000 -0.000 -0.000
  0.000  0.996  0.000  0.000  0.000
 -0.000  0.000  0.997  0.000  0.000
 -0.000  0.000  0.000  0.997 -0.000
 -0.000  0.000  0.000 -0.000  0.997
   spin  2
    eigenvalues: 
  0.349  0.388  0.398  0.420  0.435
    eigenvectors:
  0.969  0.031  0.000  0.000  0.000
  0.000  0.000  0.193  0.000  0.807
  0.000  0.000  0.000  0.999  0.000
  0.031  0.969  0.000  0.000  0.000
  0.000  0.000  0.806  0.000  0.193
    occupations:
  0.350 -0.000 -0.001 -0.007 -0.000
 -0.000  0.428 -0.000  0.000 -0.014
 -0.001 -0.000  0.420 -0.000 -0.000
 -0.007  0.000 -0.000  0.387 -0.000
 -0.000 -0.014 -0.000 -0.000  0.405
atomic mag. moment =     2.995425
atom   16   Tr[ns(na)] (up, down, total) =   4.98501  1.95312  6.93813
   spin  1
    eigenvalues: 
  0.996  0.997  0.997  0.997  0.998
    eigenvectors:
  0.000  0.001  0.000  0.000  0.999
  0.949  0.000  0.050  0.000  0.000
  0.000  0.988  0.004  0.007  0.001
  0.000  0.007  0.000  0.992  0.000
  0.050  0.003  0.946  0.000  0.000
    occupations:
  0.998  0.000  0.000 -0.000 -0.000
  0.000  0.996 -0.000  0.000 -0.000
  0.000 -0.000  0.997 -0.000 -0.000
 -0.000  0.000 -0.000  0.997  0.000
 -0.000 -0.000 -0.000  0.000  0.997
   spin  2
    eigenvalues: 
  0.341  0.386  0.392  0.411  0.424
    eigenvectors:
  0.976  0.024  0.000  0.000  0.000
  0.000  0.000  0.189  0.002  0.808
  0.000  0.000  0.000  0.998  0.002
  0.024  0.976  0.000  0.000  0.000
  0.000  0.000  0.810  0.000  0.190
    occupations:
  0.342  0.000  0.000 -0.007  0.000
  0.000  0.418  0.000  0.000  0.013
  0.000  0.000  0.411 -0.000  0.001
 -0.007  0.000 -0.000  0.385 -0.000
  0.000  0.013  0.001 -0.000  0.398
atomic mag. moment =     3.031894
atom   17   Tr[ns(na)] (up, down, total) =   4.97729  0.90494  5.88223
   spin  1
    eigenvalues: 
  0.989  0.997  0.997  0.997  0.998
    eigenvectors:
  0.230  0.074  0.543  0.001  0.152
  0.731  0.026  0.243  0.000  0.000
  0.001  0.567  0.087  0.345  0.000
  0.037  0.004  0.109  0.015  0.836
  0.001  0.330  0.018  0.639  0.012
    occupations:
  0.995  0.003 -0.000 -0.001  0.000
  0.003  0.991  0.000  0.001 -0.000
 -0.000  0.000  0.997 -0.000 -0.000
 -0.001  0.001 -0.000  0.997 -0.000
  0.000 -0.000 -0.000 -0.000  0.997
   spin  2
    eigenvalues: 
  0.127  0.163  0.176  0.183  0.257
    eigenvectors:
  0.002  0.007  0.474  0.128  0.389
  0.002  0.035  0.450  0.009  0.503
  0.000  0.951  0.042  0.003  0.004
  0.000  0.005  0.034  0.858  0.102
  0.995  0.001  0.000  0.001  0.003
    occupations:
  0.208 -0.036  0.002  0.014 -0.005
 -0.036  0.216 -0.006 -0.018  0.005
  0.002 -0.006  0.163  0.000  0.000
  0.014 -0.018  0.000  0.190 -0.000
 -0.005  0.005  0.000 -0.000  0.127
atomic mag. moment =     4.072346
atom   18   Tr[ns(na)] (up, down, total) =   4.97922  1.18783  6.16705
   spin  1
    eigenvalues: 
  0.990  0.997  0.997  0.998  0.998
    eigenvectors:
  0.082  0.003  0.562  0.198  0.155
  0.817  0.001  0.173  0.006  0.002
  0.000  0.294  0.001  0.306  0.398
  0.101  0.002  0.259  0.363  0.275
  0.000  0.699  0.005  0.126  0.170
    occupations:
  0.997  0.002  0.000 -0.001  0.000
  0.002  0.992  0.000  0.002 -0.000
  0.000  0.000  0.997 -0.000 -0.000
 -0.001  0.002 -0.000  0.997  0.000
  0.000 -0.000 -0.000  0.000  0.997
   spin  2
    eigenvalues: 
  0.184  0.203  0.231  0.238  0.333
    eigenvectors:
  0.000  0.559  0.220  0.000  0.220
  0.000  0.387  0.061  0.000  0.553
  0.945  0.000  0.000  0.055  0.000
  0.000  0.055  0.719  0.000  0.227
  0.055  0.000  0.000  0.945  0.000
    occupations:
  0.238 -0.049 -0.000  0.018  0.000
 -0.049  0.276 -0.000 -0.040 -0.002
 -0.000 -0.000  0.187  0.001 -0.012
  0.018 -0.040  0.001  0.253  0.001
  0.000 -0.002 -0.012  0.001  0.235
atomic mag. moment =     3.791397
atom   19   Tr[ns(na)] (up, down, total) =   4.97731  0.90424  5.88156
   spin  1
    eigenvalues: 
  0.989  0.997  0.997  0.997  0.998
    eigenvectors:
  0.228  0.040  0.583  0.000  0.149
  0.733  0.011  0.256  0.000  0.000
  0.001  0.602  0.041  0.355  0.001
  0.037  0.001  0.111  0.017  0.835
  0.001  0.346  0.009  0.628  0.016
    occupations:
  0.995 -0.003 -0.000 -0.001 -0.000
 -0.003  0.991 -0.000 -0.001 -0.000
 -0.000 -0.000  0.997 -0.000  0.000
 -0.001 -0.001 -0.000  0.997  0.000
 -0.000 -0.000  0.000  0.000  0.997
   spin  2
    eigenvalues: 
  0.127  0.163  0.176  0.182  0.256
    eigenvectors:
  0.001  0.010  0.475  0.127  0.387
  0.003  0.038  0.446  0.011  0.502
  0.001  0.948  0.047  0.001  0.004
  0.000  0.003  0.032  0.860  0.104
  0.995  0.001  0.000  0.001  0.003
    occupations:
  0.208  0.036  0.002  0.014  0.005
  0.036  0.216  0.006  0.018  0.006
  0.002  0.006  0.163  0.001 -0.001
  0.014  0.018  0.001  0.190  0.000
  0.005  0.006 -0.001  0.000  0.128
atomic mag. moment =     4.073071
atom   20   Tr[ns(na)] (up, down, total) =   4.97923  1.18784  6.16707
   spin  1
    eigenvalues: 
  0.990  0.997  0.997  0.998  0.998
    eigenvectors:
  0.082  0.001  0.566  0.177  0.174
  0.816  0.000  0.175  0.006  0.003
  0.000  0.290  0.000  0.334  0.377
  0.102  0.000  0.258  0.344  0.296
  0.000  0.710  0.001  0.139  0.150
    occupations:
  0.997 -0.002  0.000 -0.001 -0.000
 -0.002  0.992 -0.000 -0.002 -0.000
  0.000 -0.000  0.997 -0.000  0.000
 -0.001 -0.002 -0.000  0.997 -0.000
 -0.000 -0.000  0.000 -0.000  0.997
   spin  2
    eigenvalues: 
  0.183  0.203  0.231  0.238  0.332
    eigenvectors:
  0.000  0.564  0.216  0.000  0.220
  0.000  0.383  0.061  0.000  0.555
  0.942  0.000  0.000  0.058  0.000
  0.000  0.052  0.717  0.006  0.224
  0.058  0.000  0.006  0.936  0.000
    occupations:
  0.238  0.048  0.000  0.018 -0.000
  0.048  0.277  0.000  0.040 -0.002
  0.000  0.000  0.187  0.001  0.013
  0.018  0.040  0.001  0.252 -0.001
 -0.000 -0.002  0.013 -0.001  0.235
atomic mag. moment =     3.791389
N of occupied +U levels = 132.6521861
 --- exit write_ns ---

     negative rho (up, down):  0.000E+00 0.663E-03
 --- in v_hubbard ---
Hubbard energy    0.0000
 -------

     total cpu time spent up to now is      146.0 secs

     total energy              =   -6623.69017130 Ry
     Harris-Foulkes estimate   =   -6614.54407649 Ry
     estimated scf accuracy    <      26.78461300 Ry

     total magnetization       =    74.02 Bohr mag/cell
     absolute magnetization    =    75.05 Bohr mag/cell

     iteration #  2     ecut=    95.00 Ry     beta=0.50
     Davidson diagonalization with overlap
     ethr =  8.17E-03,  avg # of iterations =  1.0
 --- enter write_ns ---
 LDA+U parameters:
U( 1)     =  0.00000000
alpha( 1) =  0.00000000
atom    1   Tr[ns(na)] (up, down, total) =   4.98059  1.57193  6.55252
   spin  1
    eigenvalues: 
  0.995  0.996  0.996  0.996  0.997
    eigenvectors:
  0.999  0.000  0.000  0.000  0.000
  0.000  0.962  0.036  0.002  0.000
  0.000  0.035  0.945  0.000  0.020
  0.000  0.002  0.000  0.995  0.002
  0.000  0.001  0.019  0.002  0.977
    occupations:
  0.995  0.000  0.000  0.000 -0.000
  0.000  0.996  0.000  0.000  0.000
  0.000  0.000  0.996  0.000 -0.000
  0.000  0.000  0.000  0.996  0.000
 -0.000  0.000 -0.000  0.000  0.997
   spin  2
    eigenvalues: 
  0.274  0.276  0.313  0.329  0.380
    eigenvectors:
  0.000  0.000  1.000  0.000  0.000
  0.000  1.000  0.000  0.000  0.000
  1.000  0.000  0.000  0.000  0.000
  0.000  0.000  0.000  1.000  0.000
  0.000  0.000  0.000  0.000  1.000
    occupations:
  0.313  0.000  0.000 -0.000  0.000
  0.000  0.276  0.000  0.000 -0.000
  0.000  0.000  0.274 -0.000 -0.000
 -0.000  0.000 -0.000  0.329 -0.000
  0.000 -0.000 -0.000 -0.000  0.380
atomic mag. moment =     3.408664
atom    2   Tr[ns(na)] (up, down, total) =   4.98057  1.56988  6.55045
   spin  1
    eigenvalues: 
  0.995  0.996  0.996  0.996  0.996
    eigenvectors:
  0.979  0.000  0.019  0.000  0.001
  0.020  0.000  0.979  0.000  0.001
  0.000  0.989  0.000  0.010  0.000
  0.001  0.000  0.002  0.000  0.997
  0.000  0.010  0.000  0.989  0.000
    occupations:
  0.995  0.000  0.000  0.000 -0.000
  0.000  0.996 -0.000  0.000  0.000
  0.000 -0.000  0.996  0.000 -0.000
  0.000  0.000  0.000  0.996 -0.000
 -0.000  0.000 -0.000 -0.000  0.996
   spin  2
    eigenvalues: 
  0.275  0.276  0.311  0.328  0.379
    eigenvectors:
  0.000  0.000  1.000  0.000  0.000
  0.955  0.044  0.000  0.000  0.000
  0.044  0.956  0.000  0.000  0.000
  0.000  0.000  0.000  1.000  0.000
  0.000  0.000  0.000  0.000  1.000
    occupations:
  0.311  0.001  0.000  0.000 -0.000
  0.001  0.275 -0.000  0.000  0.000
  0.000 -0.000  0.276 -0.000  0.001
  0.000  0.000 -0.000  0.328  0.000
 -0.000  0.000  0.001  0.000  0.379
atomic mag. moment =     3.410697
atom    3   Tr[ns(na)] (up, down, total) =   4.98058  1.57258  6.55316
   spin  1
    eigenvalues: 
  0.995  0.996  0.996  0.996  0.997
    eigenvectors:
  0.999  0.000  0.000  0.000  0.000
  0.000  0.947  0.052  0.001  0.000
  0.000  0.051  0.931  0.001  0.018
  0.000  0.001  0.000  0.990  0.008
  0.000  0.000  0.018  0.007  0.974
    occupations:
  0.995  0.000  0.000  0.000  0.000
  0.000  0.996  0.000 -0.000  0.000
  0.000  0.000  0.996  0.000  0.000
  0.000 -0.000  0.000  0.996 -0.000
  0.000  0.000  0.000 -0.000  0.997
   spin  2
    eigenvalues: 
  0.274  0.276  0.313  0.329  0.380
    eigenvectors:
  0.000  0.000  0.999  0.001  0.000
  0.017  0.983  0.000  0.000  0.000
  0.983  0.017  0.000  0.000  0.000
  0.000  0.000  0.001  0.999  0.000
  0.000  0.000  0.000  0.000  1.000
    occupations:
  0.313 -0.000 -0.000 -0.001  0.000
 -0.000  0.276  0.000 -0.001 -0.000
 -0.000  0.000  0.275 -0.000  0.000
 -0.001 -0.001 -0.000  0.329 -0.000
  0.000 -0.000  0.000 -0.000  0.380
atomic mag. moment =     3.407999
atom    4   Tr[ns(na)] (up, down, total) =   4.98058  1.57187  6.55245
   spin  1
    eigenvalues: 
  0.995  0.996  0.996  0.996  0.996
    eigenvectors:
  0.981  0.000  0.018  0.000  0.001
  0.018  0.002  0.978  0.000  0.001
  0.000  0.990  0.002  0.009  0.000
  0.001  0.000  0.002  0.000  0.998
  0.000  0.008  0.000  0.991  0.000
    occupations:
  0.995 -0.000  0.000  0.000 -0.000
 -0.000  0.996  0.000 -0.000  0.000
  0.000  0.000  0.996 -0.000  0.000
  0.000 -0.000 -0.000  0.996 -0.000
 -0.000  0.000  0.000 -0.000  0.996
   spin  2
    eigenvalues: 
  0.275  0.276  0.312  0.329  0.380
    eigenvectors:
  0.000  0.000  0.999  0.000  0.000
  0.940  0.060  0.000  0.000  0.000
  0.060  0.940  0.000  0.000  0.000
  0.000  0.000  0.000  1.000  0.000
  0.000  0.000  0.000  0.000  1.000
    occupations:
  0.312 -0.001  0.000  0.000  0.000
 -0.001  0.276 -0.000 -0.001  0.000
  0.000 -0.000  0.276  0.000 -0.000
  0.000 -0.001  0.000  0.329  0.000
  0.000  0.000 -0.000  0.000  0.380
atomic mag. moment =     3.408713
atom    5   Tr[ns(na)] (up, down, total) =   4.94942  2.11273  7.06216
   spin  1
    eigenvalues: 
  0.989  0.989  0.989  0.990  0.992
    eigenvectors:
  0.002  0.000  0.000  0.000  0.998
  0.000  0.004  0.955  0.041  0.000
  0.974  0.024  0.000  0.000  0.002
  0.025  0.971  0.005  0.000  0.000
  0.000  0.001  0.040  0.959  0.000
    occupations:
  0.992  0.000 -0.000 -0.000  0.000
  0.000  0.989 -0.000  0.000 -0.000
 -0.000 -0.000  0.989 -0.000  0.000
 -0.000  0.000 -0.000  0.989  0.000
  0.000 -0.000  0.000  0.000  0.990
   spin  2
    eigenvalues: 
  0.354  0.368  0.463  0.464  0.464
    eigenvectors:
  0.000  1.000  0.000  0.000  0.000
  0.000  0.000  0.615  0.368  0.017
  0.000  0.000  0.000  0.036  0.963
  1.000  0.000  0.000  0.000  0.000
  0.000  0.000  0.385  0.595  0.020
    occupations:
  0.368  0.000  0.000  0.000  0.000
  0.000  0.463  0.000 -0.000 -0.000
  0.000  0.000  0.464 -0.000 -0.000
  0.000 -0.000 -0.000  0.354 -0.000
  0.000 -0.000 -0.000 -0.000  0.464
atomic mag. moment =     2.836692
atom    6   Tr[ns(na)] (up, down, total) =   4.94949  2.11067  7.06016
   spin  1
    eigenvalues: 
  0.989  0.989  0.989  0.990  0.992
    eigenvectors:
  0.003  0.000  0.000  0.000  0.997
  0.001  0.002  0.949  0.048  0.000
  0.863  0.134  0.000  0.000  0.003
  0.133  0.863  0.003  0.000  0.000
  0.000  0.000  0.048  0.951  0.000
    occupations:
  0.992  0.000  0.000 -0.000  0.000
  0.000  0.989 -0.000  0.000  0.000
  0.000 -0.000  0.989  0.000  0.000
 -0.000  0.000  0.000  0.989  0.000
  0.000  0.000  0.000  0.000  0.990
   spin  2
    eigenvalues: 
  0.354  0.368  0.463  0.463  0.463
    eigenvectors:
  0.000  1.000  0.000  0.000  0.000
  0.000  0.000  0.785  0.126  0.090
  0.000  0.000  0.003  0.510  0.487
  1.000  0.000  0.000  0.000  0.000
  0.000  0.000  0.213  0.364  0.423
    occupations:
  0.368  0.000 -0.000  0.000 -0.000
  0.000  0.463 -0.000 -0.000  0.000
 -0.000 -0.000  0.463  0.000 -0.000
  0.000 -0.000  0.000  0.354 -0.000
 -0.000  0.000 -0.000 -0.000  0.463
atomic mag. moment =     2.838819
atom    7   Tr[ns(na)] (up, down, total) =   4.94831  2.10908  7.05739
   spin  1
    eigenvalues: 
  0.989  0.989  0.989  0.990  0.991
    eigenvectors:
  0.006  0.001  0.002  0.002  0.989
  0.001  0.393  0.510  0.096  0.000
  0.087  0.525  0.388  0.000  0.001
  0.905  0.039  0.047  0.000  0.008
  0.001  0.043  0.053  0.901  0.002
    occupations:
  0.991 -0.000  0.000  0.000  0.000
 -0.000  0.989 -0.000 -0.000  0.000
  0.000 -0.000  0.989  0.000  0.000
  0.000 -0.000  0.000  0.989  0.000
  0.000  0.000  0.000  0.000  0.990
   spin  2
    eigenvalues: 
  0.352  0.364  0.464  0.464  0.465
    eigenvectors:
  0.000  1.000  0.000  0.000  0.000
  0.000  0.000  0.013  0.088  0.899
  0.000  0.000  0.415  0.560  0.025
  1.000  0.000  0.000  0.000  0.000
  0.000  0.000  0.572  0.352  0.076
    occupations:
  0.364 -0.000 -0.000 -0.000 -0.000
 -0.000  0.465  0.000  0.000  0.000
 -0.000  0.000  0.464 -0.000  0.000
 -0.000  0.000 -0.000  0.352 -0.000
 -0.000  0.000  0.000 -0.000  0.464
atomic mag. moment =     2.839232
atom    8   Tr[ns(na)] (up, down, total) =   4.94835  2.11013  7.05848
   spin  1
    eigenvalues: 
  0.989  0.989  0.989  0.990  0.991
    eigenvectors:
  0.007  0.001  0.003  0.004  0.986
  0.015  0.803  0.066  0.115  0.000
  0.120  0.043  0.836  0.000  0.001
  0.856  0.044  0.090  0.000  0.010
  0.002  0.110  0.005  0.881  0.003
    occupations:
  0.991 -0.000 -0.000  0.000  0.000
 -0.000  0.989 -0.000 -0.000 -0.000
 -0.000 -0.000  0.989 -0.000 -0.000
  0.000 -0.000 -0.000  0.989  0.000
  0.000 -0.000 -0.000  0.000  0.990
   spin  2
    eigenvalues: 
  0.352  0.363  0.464  0.465  0.465
    eigenvectors:
  0.000  1.000  0.000  0.000  0.000
  0.000  0.000  0.061  0.012  0.927
  0.000  0.000  0.000  0.987  0.013
  1.000  0.000  0.000  0.000  0.000
  0.000  0.000  0.939  0.001  0.060
    occupations:
  0.363  0.000 -0.000 -0.000 -0.000
  0.000  0.465 -0.000  0.000 -0.000
 -0.000 -0.000  0.465  0.000 -0.000
 -0.000  0.000  0.000  0.352  0.000
 -0.000 -0.000 -0.000  0.000  0.464
atomic mag. moment =     2.838222
atom    9   Tr[ns(na)] (up, down, total) =   4.95124  2.18222  7.13346
   spin  1
    eigenvalues: 
  0.987  0.988  0.990  0.991  0.994
    eigenvectors:
  0.000  0.003  0.000  0.000  0.997
  0.000  0.936  0.000  0.061  0.003
  0.821  0.000  0.179  0.000  0.000
  0.000  0.061  0.000  0.939  0.000
  0.179  0.000  0.821  0.000  0.000
    occupations:
  0.994  0.000 -0.000 -0.000  0.000
  0.000  0.989 -0.000  0.001  0.000
 -0.000 -0.000  0.988  0.000 -0.001
 -0.000  0.001  0.000  0.991  0.000
  0.000  0.000 -0.001  0.000  0.989
   spin  2
    eigenvalues: 
  0.343  0.390  0.477  0.481  0.492
    eigenvectors:
  0.999  0.000  0.000  0.001  0.000
  0.001  0.000  0.012  0.987  0.000
  0.000  0.000  0.826  0.011  0.163
  0.000  1.000  0.000  0.000  0.000
  0.000  0.000  0.162  0.001  0.837
    occupations:
  0.343  0.004 -0.000  0.001  0.000
  0.004  0.481 -0.000 -0.000 -0.000
 -0.000 -0.000  0.480 -0.000 -0.005
  0.001 -0.000 -0.000  0.390  0.000
  0.000 -0.000 -0.005  0.000  0.489
atomic mag. moment =     2.769025
atom   10   Tr[ns(na)] (up, down, total) =   4.95282  2.17722  7.13004
   spin  1
    eigenvalues: 
  0.988  0.989  0.990  0.991  0.994
    eigenvectors:
  0.000  0.009  0.001  0.000  0.990
  0.002  0.855  0.052  0.081  0.010
  0.984  0.004  0.011  0.001  0.000
  0.001  0.078  0.004  0.917  0.000
  0.013  0.054  0.933  0.000  0.000
    occupations:
  0.994  0.000  0.000 -0.000  0.000
  0.000  0.990 -0.000  0.001 -0.000
  0.000 -0.000  0.988 -0.000 -0.000
 -0.000  0.001 -0.000  0.991  0.000
  0.000 -0.000 -0.000  0.000  0.990
   spin  2
    eigenvalues: 
  0.353  0.393  0.471  0.471  0.489
    eigenvectors:
  1.000  0.000  0.000  0.000  0.000
  0.000  0.000  0.002  0.998  0.000
  0.000  0.000  0.784  0.001  0.215
  0.000  1.000  0.000  0.000  0.000
  0.000  0.000  0.215  0.000  0.785
    occupations:
  0.353  0.002 -0.000  0.000  0.000
  0.002  0.471  0.000  0.000  0.000
 -0.000  0.000  0.475 -0.000 -0.007
  0.000  0.000 -0.000  0.393  0.000
  0.000  0.000 -0.007  0.000  0.485
atomic mag. moment =     2.775601
atom   11   Tr[ns(na)] (up, down, total) =   4.95100  2.17971  7.13071
   spin  1
    eigenvalues: 
  0.987  0.988  0.990  0.991  0.994
    eigenvectors:
  0.000  0.003  0.000  0.000  0.997
  0.002  0.939  0.000  0.056  0.003
  0.817  0.002  0.181  0.000  0.000
  0.000  0.057  0.000  0.943  0.000
  0.181  0.000  0.818  0.000  0.000
    occupations:
  0.994 -0.000 -0.000 -0.000 -0.000
 -0.000  0.989 -0.000 -0.001  0.000
 -0.000 -0.000  0.988  0.000  0.001
 -0.000 -0.001  0.000  0.991 -0.000
 -0.000  0.000  0.001 -0.000  0.989
   spin  2
    eigenvalues: 
  0.343  0.389  0.476  0.480  0.491
    eigenvectors:
  0.999  0.000  0.000  0.001  0.000
  0.001  0.000  0.033  0.965  0.001
  0.000  0.000  0.818  0.032  0.150
  0.000  1.000  0.000  0.000  0.000
  0.000  0.000  0.149  0.002  0.849
    occupations:
  0.343 -0.004 -0.000  0.001 -0.000
 -0.004  0.480  0.001  0.000 -0.001
 -0.000  0.001  0.479 -0.000  0.005
  0.001  0.000 -0.000  0.389 -0.000
 -0.000 -0.001  0.005 -0.000  0.489
atomic mag. moment =     2.771290
atom   12   Tr[ns(na)] (up, down, total) =   4.95297  2.18063  7.13360
   spin  1
    eigenvalues: 
  0.989  0.989  0.990  0.991  0.994
    eigenvectors:
  0.000  0.008  0.001  0.000  0.991
  0.001  0.863  0.054  0.074  0.009
  0.985  0.000  0.014  0.001  0.000
  0.001  0.070  0.004  0.925  0.000
  0.013  0.059  0.928  0.000  0.000
    occupations:
  0.994 -0.000  0.000 -0.000 -0.000
 -0.000  0.989 -0.000 -0.001 -0.000
  0.000 -0.000  0.989 -0.000  0.000
 -0.000 -0.001 -0.000  0.991 -0.000
 -0.000 -0.000  0.000 -0.000  0.990
   spin  2
    eigenvalues: 
  0.354  0.393  0.472  0.472  0.490
    eigenvectors:
  1.000  0.000  0.000  0.000  0.000
  0.000  0.000  0.266  0.734  0.000
  0.000  0.000  0.581  0.213  0.206
  0.000  1.000  0.000  0.000  0.000
  0.000  0.000  0.153  0.053  0.794
    occupations:
  0.354 -0.002 -0.000  0.001 -0.000
 -0.002  0.472 -0.000 -0.000  0.000
 -0.000 -0.000  0.475 -0.000  0.007
  0.001 -0.000 -0.000  0.393  0.000
 -0.000  0.000  0.007  0.000  0.486
atomic mag. moment =     2.772341
atom   13   Tr[ns(na)] (up, down, total) =   4.95285  2.09690  7.04975
   spin  1
    eigenvalues: 
  0.989  0.989  0.990  0.990  0.995
    eigenvectors:
  0.009  0.102  0.000  0.048  0.840
  0.914  0.085  0.000  0.000  0.000
  0.001  0.006  0.001  0.924  0.068
  0.075  0.806  0.000  0.027  0.092
  0.001  0.000  0.999  0.001  0.000
    occupations:
  0.994 -0.000 -0.001 -0.002  0.000
 -0.000  0.989 -0.000 -0.000  0.000
 -0.001 -0.000  0.991  0.000 -0.000
 -0.002 -0.000  0.000  0.989  0.000
  0.000  0.000 -0.000  0.000  0.990
   spin  2
    eigenvalues: 
  0.349  0.354  0.446  0.473  0.475
    eigenvectors:
  0.058  0.942  0.000  0.000  0.000
  0.000  0.000  0.470  0.005  0.526
  0.000  0.000  0.000  0.992  0.008
  0.942  0.058  0.000  0.000  0.000
  0.000  0.000  0.530  0.004  0.466
    occupations:
  0.354 -0.000  0.000  0.001  0.000
 -0.000  0.461 -0.000 -0.000 -0.015
  0.000 -0.000  0.473  0.001  0.000
  0.001 -0.000  0.001  0.350  0.000
  0.000 -0.015  0.000  0.000  0.460
atomic mag. moment =     2.855949
atom   14   Tr[ns(na)] (up, down, total) =   4.95503  2.09548  7.05051
   spin  1
    eigenvalues: 
  0.989  0.989  0.990  0.991  0.996
    eigenvectors:
  0.060  0.000  0.000  0.072  0.868
  0.001  0.996  0.003  0.000  0.000
  0.034  0.000  0.000  0.914  0.051
  0.903  0.001  0.001  0.014  0.081
  0.001  0.002  0.996  0.000  0.000
    occupations:
  0.995 -0.000  0.001 -0.002  0.000
 -0.000  0.989 -0.000  0.000 -0.000
  0.001 -0.000  0.991 -0.001  0.000
 -0.002  0.000 -0.001  0.990  0.000
  0.000 -0.000  0.000  0.000  0.990
   spin  2
    eigenvalues: 
  0.347  0.353  0.446  0.473  0.476
    eigenvectors:
  0.978  0.021  0.000  0.001  0.000
  0.000  0.000  0.453  0.000  0.546
  0.001  0.000  0.000  0.998  0.001
  0.021  0.979  0.000  0.000  0.000
  0.000  0.000  0.547  0.000  0.453
    occupations:
  0.347 -0.000  0.004  0.001 -0.000
 -0.000  0.463 -0.000  0.000  0.015
  0.004 -0.000  0.473 -0.001 -0.000
  0.001  0.000 -0.001  0.353 -0.000
 -0.000  0.015 -0.000 -0.000  0.460
atomic mag. moment =     2.859547
atom   15   Tr[ns(na)] (up, down, total) =   4.95381  2.09579  7.04960
   spin  1
    eigenvalues: 
  0.988  0.990  0.991  0.991  0.993
    eigenvectors:
  0.000  0.027  0.001  0.047  0.925
  0.859  0.000  0.138  0.004  0.000
  0.000  0.232  0.022  0.733  0.013
  0.000  0.740  0.004  0.193  0.062
  0.141  0.000  0.835  0.024  0.000
    occupations:
  0.993  0.000  0.000  0.001  0.000
  0.000  0.989 -0.000  0.000  0.001
  0.000 -0.000  0.991  0.000  0.000
  0.001  0.000  0.000  0.991  0.000
  0.000  0.001  0.000  0.000  0.991
   spin  2
    eigenvalues: 
  0.358  0.368  0.431  0.464  0.475
    eigenvectors:
  0.947  0.053  0.000  0.001  0.000
  0.000  0.000  0.203  0.000  0.797
  0.001  0.000  0.000  0.999  0.000
  0.053  0.947  0.000  0.000  0.000
  0.000  0.000  0.797  0.000  0.202
    occupations:
  0.358  0.000  0.003 -0.002 -0.000
  0.000  0.466 -0.000  0.000 -0.018
  0.003 -0.000  0.464  0.000 -0.000
 -0.002  0.000  0.000  0.368 -0.000
 -0.000 -0.018 -0.000 -0.000  0.440
atomic mag. moment =     2.858014
atom   16   Tr[ns(na)] (up, down, total) =   4.95594  2.09843  7.05437
   spin  1
    eigenvalues: 
  0.989  0.991  0.991  0.991  0.994
    eigenvectors:
  0.000  0.060  0.009  0.000  0.931
  0.832  0.000  0.000  0.168  0.000
  0.000  0.044  0.954  0.000  0.002
  0.000  0.897  0.036  0.000  0.067
  0.168  0.000  0.000  0.831  0.000
    occupations:
  0.993 -0.000 -0.000  0.001  0.000
 -0.000  0.989 -0.000  0.000 -0.001
 -0.000 -0.000  0.991 -0.000 -0.000
  0.001  0.000 -0.000  0.991  0.000
  0.000 -0.001 -0.000  0.000  0.991
   spin  2
    eigenvalues: 
  0.356  0.369  0.433  0.467  0.473
    eigenvectors:
  0.967  0.033  0.000  0.000  0.000
  0.000  0.000  0.247  0.004  0.749
  0.000  0.000  0.000  0.995  0.005
  0.033  0.967  0.000  0.000  0.000
  0.000  0.000  0.753  0.001  0.246
    occupations:
  0.357  0.000 -0.001 -0.002  0.000
  0.000  0.463  0.000  0.000  0.017
 -0.001  0.000  0.467 -0.000  0.000
 -0.002  0.000 -0.000  0.369 -0.000
  0.000  0.017  0.000 -0.000  0.443
atomic mag. moment =     2.857507
atom   17   Tr[ns(na)] (up, down, total) =   4.97101  1.55818  6.52919
   spin  1
    eigenvalues: 
  0.986  0.995  0.996  0.997  0.997
    eigenvectors:
  0.203  0.502  0.165  0.002  0.128
  0.713  0.151  0.121  0.003  0.012
  0.006  0.301  0.601  0.087  0.006
  0.077  0.025  0.053  0.020  0.825
  0.002  0.020  0.061  0.889  0.029
    occupations:
  0.994  0.004 -0.000 -0.002  0.000
  0.004  0.989  0.001  0.002 -0.000
 -0.000  0.001  0.996 -0.000 -0.000
 -0.002  0.002 -0.000  0.996  0.000
  0.000 -0.000 -0.000  0.000  0.997
   spin  2
    eigenvalues: 
  0.261  0.280  0.305  0.320  0.391
    eigenvectors:
  0.010  0.526  0.000  0.073  0.391
  0.076  0.374  0.039  0.014  0.497
  0.706  0.020  0.243  0.023  0.009
  0.001  0.003  0.136  0.764  0.095
  0.207  0.077  0.582  0.126  0.008
    occupations:
  0.326 -0.051  0.003  0.012 -0.009
 -0.051  0.335 -0.013 -0.018  0.007
  0.003 -0.013  0.275  0.003  0.018
  0.012 -0.018  0.003  0.325  0.003
 -0.009  0.007  0.018  0.003  0.297
atomic mag. moment =     3.412836
atom   18   Tr[ns(na)] (up, down, total) =   4.97350  1.74363  6.71713
   spin  1
    eigenvalues: 
  0.989  0.995  0.996  0.997  0.997
    eigenvectors:
  0.055  0.000  0.431  0.508  0.005
  0.783  0.002  0.199  0.015  0.001
  0.000  0.250  0.006  0.002  0.742
  0.161  0.002  0.364  0.473  0.000
  0.000  0.746  0.000  0.002  0.251
    occupations:
  0.996  0.001  0.000 -0.001 -0.000
  0.001  0.990  0.000  0.003  0.000
[...]
     0.0014   0.0007   0.0004   0.0002   0.0001   0.0001   0.0001   0.0000
     0.0000   0.0000   0.0000   0.0000   0.0000   0.0000   0.0000   0.0000
     0.0000   0.0000   0.0000   0.0000   0.0000   0.0000   0.0000   0.0000
     0.0000   0.0000   0.0000   0.0000   0.0000   0.0000   0.0000   0.0000
     0.0000   0.0000   0.0000   0.0000   0.0000   0.0000   0.0000   0.0000
     0.0000   0.0000   0.0000   0.0000   0.0000   0.0000   0.0000   0.0000
     0.0000   0.0000

     the Fermi energy is     5.1003 ev

!    total energy              =   -6628.78764125 Ry
     Harris-Foulkes estimate   =   -6628.78764125 Ry
     estimated scf accuracy    <          5.6E-09 Ry

     total all-electron energy =    -51063.565235 Ry

     The total energy is the sum of the following terms:

     one-electron contribution =  -25877.92771087 Ry
     hartree contribution      =   12999.05333327 Ry
     xc contribution           =    -705.07416298 Ry
     ewald contribution        =    8487.56297526 Ry
     Hubbard energy            =       0.00000000 Ry
     one-center paw contrib.   =   -1532.50172606 Ry
     smearing contrib. (-TS)   =       0.09965013 Ry

     total magnetization       =    51.19 Bohr mag/cell
     absolute magnetization    =    53.55 Bohr mag/cell

     convergence has been achieved in  30 iterations

     Forces acting on atoms (Ry/au):


     negative rho (up, down):  0.538E-04 0.131E-02
     atom    1 type  1   force =     0.00000865    0.00009010    0.00334125
     atom    2 type  1   force =    -0.00003732   -0.00010195    0.00335144
     atom    3 type  1   force =    -0.00000934    0.00008955    0.00334346
     atom    4 type  1   force =     0.00003525   -0.00010213    0.00335190
     atom    5 type  1   force =     0.00000080   -0.00052209   -0.00926894
     atom    6 type  1   force =     0.00000332    0.00062444   -0.00942542
     atom    7 type  1   force =    -0.00000300    0.00022774   -0.00418278
     atom    8 type  1   force =    -0.00000260   -0.00030233   -0.00382657
     atom    9 type  1   force =    -0.00596166   -0.00005981    0.00396494
     atom   10 type  1   force =    -0.00814994    0.00002348    0.00285014
     atom   11 type  1   force =     0.00601379   -0.00004484    0.00396429
     atom   12 type  1   force =     0.00821627    0.00003149    0.00285009
     atom   13 type  1   force =     0.00001879    0.00007550   -0.00000400
     atom   14 type  1   force =    -0.00000580   -0.00000203   -0.00010493
     atom   15 type  1   force =    -0.00002737    0.00009558   -0.00003244
     atom   16 type  1   force =    -0.00003850   -0.00001724   -0.00007854
     atom   17 type  1   force =     0.00008778    0.00001235   -0.00001949
     atom   18 type  1   force =     0.00000352    0.00001806   -0.00003524
     atom   19 type  1   force =    -0.00007142   -0.00004631    0.00000411
     atom   20 type  1   force =    -0.00005187   -0.00001743   -0.00005380
     atom   21 type  2   force =    -0.00000909    0.00001572   -0.00004325
     atom   22 type  3   force =    -0.00002981   -0.00004993    0.00004427
     atom   23 type  3   force =     0.00000953   -0.00003792    0.00000951
     The non-local contrib.  to forces
     atom    1 type  1   force =     0.00024426   -0.00006032   -0.39081879
     atom    2 type  1   force =    -0.00245893    0.00031359   -0.39405584
     atom    3 type  1   force =    -0.00025139   -0.00006347   -0.39082174
     atom    4 type  1   force =     0.00244647    0.00031483   -0.39406226
     atom    5 type  1   force =    -0.00000581    0.00098125   -0.03300816
     atom    6 type  1   force =    -0.00000846   -0.00172573   -0.03108131
     atom    7 type  1   force =    -0.00000509   -0.00077922   -0.03770962
     atom    8 type  1   force =    -0.00000236    0.00073413   -0.03689690
     atom    9 type  1   force =     0.01132254   -0.00008734    0.00014832
     atom   10 type  1   force =     0.01359307   -0.00042950   -0.00972323
     atom   11 type  1   force =    -0.01139872   -0.00008303    0.00013303
     atom   12 type  1   force =    -0.01364251   -0.00042097   -0.00973760
     atom   13 type  1   force =     0.00000800    0.01047061    0.05807849
     atom   14 type  1   force =     0.00002836   -0.00668072    0.06973509
     atom   15 type  1   force =    -0.00000622    0.01655375   -0.01632480
     atom   16 type  1   force =    -0.00000598   -0.01267579   -0.01176640
     atom   17 type  1   force =    -0.02342981    0.01073220    0.22673736
     atom   18 type  1   force =    -0.03115377    0.00680532    0.28117315
     atom   19 type  1   force =     0.02335527    0.01080651    0.22668747
     atom   20 type  1   force =     0.03130134    0.00696176    0.28113026
     atom   21 type  2   force =     0.00005206   -1.64092923   -0.14977374
     atom   22 type  3   force =     0.00000400    0.00173311   -0.01814400
     atom   23 type  3   force =    -0.00000711    0.09393792   -0.04452568
     The ionic contribution  to forces
     atom    1 type  1   force =    -0.10672837   -0.00631084 -261.70310722
     atom    2 type  1   force =    -0.10776197    0.00625849 -261.68498336
     atom    3 type  1   force =     0.10673307   -0.00630365 -261.70272847
     atom    4 type  1   force =     0.10785074    0.00625085 -261.68460908
     atom    5 type  1   force =     0.00044783    0.04593069 -142.28376465
     atom    6 type  1   force =     0.00033309   -0.04624880 -142.24497606
     atom    7 type  1   force =    -0.00089418    0.05454056 -141.20612120
     atom    8 type  1   force =    -0.00086743   -0.05305042 -141.11468401
     atom    9 type  1   force =    -1.91827889   -0.13071433   -6.67848764
     atom   10 type  1   force =    -1.99892130    0.12196265   -6.82873159
     atom   11 type  1   force =     1.92329942   -0.13048533   -6.67703715
     atom   12 type  1   force =     2.00288463    0.12122652   -6.82753887
     atom   13 type  1   force =     0.00130875   -0.48426501  122.73684404
     atom   14 type  1   force =     0.00168044    0.48497772  122.99853258
     atom   15 type  1   force =    -0.00135896   -0.02260550  131.35366230
     atom   16 type  1   force =    -0.00413234    0.09132224  132.17214230
     atom   17 type  1   force =   -10.93149253    0.19236356  246.01056232
     atom   18 type  1   force =    -7.08455695    0.17536846  247.45846558
     atom   19 type  1   force =    10.93120941    0.18814460  246.00282911
     atom   20 type  1   force =     7.07828309    0.17640423  247.45262763
     atom   21 type  2   force =     0.00075939    2.58776950  107.39770996
     atom   22 type  3   force =    -0.00020730   -0.10880508   19.11676337
     atom   23 type  3   force =     0.00041035   -3.26373110   17.93663011
     The local contribution  to forces
     atom    1 type  1   force =     0.10650676    0.00647638  262.11032311
     atom    2 type  1   force =     0.11030222   -0.00668471  262.09535519
     atom    3 type  1   force =    -0.10650437    0.00647114  262.10994653
     atom    4 type  1   force =    -0.11037902   -0.00667707  262.09498773
     atom    5 type  1   force =    -0.00044429   -0.04724403  142.30777770
     atom    6 type  1   force =    -0.00032442    0.04849473  142.26692558
     atom    7 type  1   force =     0.00089673   -0.05354199  141.24050373
     atom    8 type  1   force =     0.00086712    0.05204428  141.14860573
     atom    9 type  1   force =     1.90147286    0.13068196    6.68258670
     atom   10 type  1   force =     1.97740659   -0.12155820    6.84158679
     atom   11 type  1   force =    -1.90637057    0.13046297    6.68115093
     atom   12 type  1   force =    -1.98126027   -0.12082285    6.84040579
     atom   13 type  1   force =    -0.00130054    0.47388199 -122.79695574
     atom   14 type  1   force =    -0.00171622   -0.47862260 -123.07076349
     atom   15 type  1   force =     0.00133790    0.00618762 -131.33630399
     atom   16 type  1   force =     0.00410347   -0.07892133 -132.15958687
     atom   17 type  1   force =    10.94968113   -0.20265399 -246.25764202
     atom   18 type  1   force =     7.11904540   -0.18190312 -247.75146173
     atom   19 type  1   force =   -10.94930648   -0.19855865 -246.24983577
     atom   20 type  1   force =    -7.11296398   -0.18313142 -247.74559658
     atom   21 type  2   force =    -0.00082017   -0.96292478 -107.24980674
     atom   22 type  3   force =     0.00017351    0.10702284  -19.09857392
     atom   23 type  3   force =    -0.00039374    3.16975390  -17.89208875
     The core correction contribution to forces
     atom    1 type  1   force =     0.00000214   -0.00000911   -0.01290012
     atom    2 type  1   force =    -0.00010307    0.00000587   -0.01282099
     atom    3 type  1   force =    -0.00000277   -0.00000896   -0.01289839
     atom    4 type  1   force =     0.00010095    0.00000508   -0.01282188
     atom    5 type  1   force =     0.00000146   -0.00019082   -0.00008193
     atom    6 type  1   force =     0.00000159    0.00010707   -0.00010462
     atom    7 type  1   force =     0.00000118    0.00000592   -0.00066753
     atom    8 type  1   force =     0.00000151   -0.00002656   -0.00066584
     atom    9 type  1   force =    -0.00046069    0.00006935   -0.00025471
     atom   10 type  1   force =    -0.00020773    0.00004038   -0.00023711
     atom   11 type  1   force =     0.00046604    0.00007038   -0.00025499
     atom   12 type  1   force =     0.00021362    0.00004030   -0.00023462
     atom   13 type  1   force =     0.00000112    0.00002502    0.00191925
     atom   14 type  1   force =     0.00000002    0.00028940    0.00228152
     atom   15 type  1   force =     0.00000138   -0.00000653   -0.00116169
     atom   16 type  1   force =    -0.00000207    0.00022244   -0.00096865
     atom   17 type  1   force =     0.00535103   -0.00042011    0.02020519
     atom   18 type  1   force =    -0.00332996   -0.00025860    0.01165569
     atom   19 type  1   force =    -0.00535164   -0.00042913    0.02020676
     atom   20 type  1   force =     0.00332662   -0.00025815    0.01165338
     atom   21 type  2   force =    -0.00000048    0.01609845    0.00183228
     atom   22 type  3   force =     0.00000000    0.00000000    0.00000000
     atom   23 type  3   force =     0.00000000    0.00000000    0.00000000
     The Hubbard contrib.    to forces
     atom    1 type  1   force =    -0.00000000    0.00000000   -0.00000000
     atom    2 type  1   force =    -0.00000000   -0.00000000   -0.00000000
     atom    3 type  1   force =     0.00000000    0.00000000   -0.00000000
     atom    4 type  1   force =     0.00000000   -0.00000000   -0.00000000
     atom    5 type  1   force =    -0.00000000    0.00000000   -0.00000000
     atom    6 type  1   force =    -0.00000000    0.00000000   -0.00000000
     atom    7 type  1   force =    -0.00000000   -0.00000000    0.00000000
     atom    8 type  1   force =    -0.00000000    0.00000000    0.00000000
     atom    9 type  1   force =     0.00000000    0.00000000   -0.00000000
     atom   10 type  1   force =     0.00000000   -0.00000000   -0.00000000
     atom   11 type  1   force =    -0.00000000    0.00000000   -0.00000000
     atom   12 type  1   force =    -0.00000000   -0.00000000   -0.00000000
     atom   13 type  1   force =    -0.00000000    0.00000000   -0.00000000
     atom   14 type  1   force =     0.00000000   -0.00000000   -0.00000000
     atom   15 type  1   force =    -0.00000000    0.00000000    0.00000000
     atom   16 type  1   force =     0.00000000   -0.00000000    0.00000000
     atom   17 type  1   force =    -0.00000000    0.00000000    0.00000000
     atom   18 type  1   force =     0.00000000   -0.00000000    0.00000000
     atom   19 type  1   force =     0.00000000    0.00000000    0.00000000
     atom   20 type  1   force =    -0.00000000   -0.00000000    0.00000000
     atom   21 type  2   force =     0.00000000    0.00000000    0.00000000
     atom   22 type  3   force =     0.00000000    0.00000000   -0.00000000
     atom   23 type  3   force =    -0.00000000   -0.00000000    0.00000000
     The SCF correction term to forces
     atom    1 type  1   force =     0.00000000    0.00000000    0.00000000
     atom    2 type  1   force =     0.00000000    0.00000000    0.00000000
     atom    3 type  1   force =     0.00000000    0.00000000    0.00000000
     atom    4 type  1   force =     0.00000000    0.00000000    0.00000000
     atom    5 type  1   force =     0.00000000    0.00000000    0.00000000
     atom    6 type  1   force =     0.00000000    0.00000000    0.00000000
     atom    7 type  1   force =     0.00000000    0.00000000    0.00000000
     atom    8 type  1   force =     0.00000000    0.00000000    0.00000000
     atom    9 type  1   force =     0.00000000    0.00000000    0.00000000
     atom   10 type  1   force =     0.00000000    0.00000000    0.00000000
     atom   11 type  1   force =     0.00000000    0.00000000    0.00000000
     atom   12 type  1   force =     0.00000000    0.00000000    0.00000000
     atom   13 type  1   force =     0.00000142   -0.00003636    0.00011804
     atom   14 type  1   force =     0.00000157    0.00003493    0.00011745
     atom   15 type  1   force =    -0.00000150   -0.00003300    0.00010382
     atom   16 type  1   force =    -0.00000162    0.00003596    0.00010916
     atom   17 type  1   force =    -0.00002207   -0.00000857    0.00012574
     atom   18 type  1   force =    -0.00000121    0.00000676    0.00014017
     atom   19 type  1   force =     0.00002198   -0.00000888    0.00012463
     atom   20 type  1   force =     0.00000103    0.00000691    0.00013959
     atom   21 type  2   force =     0.00000008    0.00000254    0.00000308
     atom   22 type  3   force =    -0.00000006   -0.00000004    0.00000690
     atom   23 type  3   force =    -0.00000000    0.00000211    0.00000192

     Total force =     0.000261     Total SCF correction =     0.000357
     SCF correction compared to forces is large: reduce conv_thr to get better values


     entering subroutine stress ...


     negative rho (up, down):  0.538E-04 0.131E-02
          total   stress  (Ry/bohr**3)                   (kbar)     P=  -15.37
  -0.00018730   0.00000001  -0.00000013        -27.55      0.00     -0.02
   0.00000001  -0.00012806   0.00000002          0.00    -18.84      0.00
  -0.00000013   0.00000002   0.00000188         -0.02      0.00      0.28

     kinetic stress (kbar)  32300.63      0.01     -0.06
                                0.01  32259.50     25.91
                               -0.06     25.91  32206.89

     local   stress (kbar)-860346.95     -0.38      2.09
                               -0.38-859064.13    217.08
                                2.09    217.08 909065.51

     nonloc. stress (kbar) -24749.73     -0.01      0.06
                               -0.01 -24726.96      4.83
                                0.06      4.83 -24680.51

     hartree stress (kbar) 455205.25      0.15     -0.77
                                0.15 454720.60    -69.24
                               -0.77    -69.24-419393.08

     exc-cor stress (kbar)  -1109.98      0.00     -0.00
                                0.00  -1110.36     -0.45
                               -0.00     -0.45  -1115.89

     corecor stress (kbar)  -6598.45     -0.00      0.00
                               -0.00  -6598.36     -0.08
                                0.00     -0.08  -6597.09

     ewald   stress (kbar) 405271.67      0.23     -1.33
                                0.23 404500.87   -178.04
                               -1.33   -178.04-489485.54

     hubbard stress (kbar)     -0.00      0.00      0.00
                                0.00     -0.00     -0.00
                                0.00     -0.00     -0.00

     london  stress (kbar)      0.00      0.00      0.00
                                0.00      0.00      0.00
                                0.00      0.00      0.00

     dft-nl  stress (kbar)      0.00      0.00      0.00
                                0.00      0.00      0.00
                                0.00      0.00      0.00



     Writing output data file Fe_100_2x2_HO_FH_O_SB_0.25ML.save
 
     init_run     :     41.21s CPU     47.01s WALL (       1 calls)
     electrons    :   2360.58s CPU   2457.20s WALL (       1 calls)
     forces       :     77.88s CPU     79.03s WALL (       1 calls)
     stress       :    374.35s CPU    384.23s WALL (       1 calls)

     Called by init_run:
     wfcinit      :     23.67s CPU     29.24s WALL (       1 calls)
     potinit      :      3.07s CPU      3.09s WALL (       1 calls)

     Called by electrons:
     c_bands      :   1187.22s CPU   1244.05s WALL (      30 calls)
     sum_band     :    615.63s CPU    640.04s WALL (      30 calls)
     v_of_rho     :     22.73s CPU     23.15s WALL (      31 calls)
     v_h          :      1.17s CPU      1.17s WALL (      31 calls)
     v_xc         :     22.95s CPU     23.40s WALL (      33 calls)
     newd         :    354.40s CPU    355.48s WALL (      31 calls)
     mix_rho      :    170.66s CPU    171.10s WALL (      30 calls)

     Called by c_bands:
     init_us_2    :      7.29s CPU      7.28s WALL (     370 calls)
     cegterg      :   1094.04s CPU   1118.02s WALL (     150 calls)

     Called by sum_band:
     sum_band:bec :      0.34s CPU      0.32s WALL (     150 calls)
     addusdens    :    399.52s CPU    400.31s WALL (      30 calls)

     Called by *egterg:
     h_psi        :    835.80s CPU    837.88s WALL (     561 calls)
     s_psi        :     59.50s CPU     59.55s WALL (     616 calls)
     g_psi        :      1.46s CPU      1.46s WALL (     406 calls)
     cdiaghg      :     62.20s CPU     62.43s WALL (     556 calls)
     cegterg:over :     59.88s CPU     59.99s WALL (     406 calls)
     cegterg:upda :     44.23s CPU     44.44s WALL (     406 calls)
     cegterg:last :     28.13s CPU     28.17s WALL (     150 calls)
     cdiaghg:chol :      3.14s CPU      3.04s WALL (     556 calls)
     cdiaghg:inve :      0.98s CPU      1.04s WALL (     556 calls)
     cdiaghg:para :     12.25s CPU     12.23s WALL (    1112 calls)

     Called by h_psi:
     h_psi:vloc   :    570.76s CPU    572.43s WALL (     561 calls)
     h_psi:vnl    :    105.92s CPU    106.12s WALL (     561 calls)
     add_vuspsi   :     51.19s CPU     51.29s WALL (     561 calls)
     vhpsi        :    156.29s CPU    156.45s WALL (     561 calls)

     General routines
     calbec       :    169.38s CPU    169.62s WALL (    2617 calls)
     fft          :     24.64s CPU     25.02s WALL (     995 calls)
     ffts         :     77.74s CPU     78.01s WALL (   15391 calls)
     fftw         :    568.53s CPU    570.16s WALL (   79580 calls)
     interpolate  :      4.14s CPU      4.22s WALL (     122 calls)
     davcio       :     13.33s CPU     83.42s WALL (    1085 calls)
 
     Parallel routines
     fft_scatter  :    298.48s CPU    299.46s WALL (   95966 calls)
     ALLTOALL     :     20.03s CPU     20.16s WALL (   79414 calls)
     Hubbard U routines
     new_ns       :     20.42s CPU     36.64s WALL (      30 calls)
     vhpsi        :    156.29s CPU    156.45s WALL (     561 calls)
     force_hub    :     20.66s CPU     21.51s WALL (       1 calls)
     stres_hub    :    198.95s CPU    208.54s WALL (       1 calls)
 
     PAW routines
     PAW_pot      :      8.24s CPU      8.27s WALL (      31 calls)
     PAW_ddot     :      6.67s CPU      6.64s WALL (    1066 calls)
 
     PWSCF        : 47m49.77s CPU    49m55.76s WALL

 
   This run was terminated on:  19: 4: 2   3Aug2015            

=------------------------------------------------------------------------------=
   JOB DONE.
=------------------------------------------------------------------------------=
Application 16675028 resources: utime ~139045s, stime ~4535s, Rss ~625752, inblocks ~6502294134, outblocks ~1053814255
