
     Program PWSCF v.5.0.2 (svn rev. 9656) starts on 12Dec2015 at  4:53:12 

     This program is part of the open-source Quantum ESPRESSO suite
     for quantum simulation of materials; please cite
         "P. Giannozzi et al., J. Phys.:Condens. Matter 21 395502 (2009);
          URL http://www.quantum-espresso.org", 
     in publications or presentations arising from this work. More details at
     http://www.quantum-espresso.org/quote.php

     Parallel version (MPI & OpenMP), running on      48 processor cores
     Number of MPI processes:                48
     Threads/MPI process:                     1
     K-points division:     npool     =       4
     R & G space division:  proc/nbgrp/npool/nimage =      12
     wavefunctions fft division:  fft/group =       2

     Current dimensions of program PWSCF are:
     Max number of different atomic species (ntypx) = 10
     Max number of k-points (npk) =  40000
     Max angular momentum in pseudopotentials (lmaxx) =  3
     Reading input from Fe_100_2x2_CO2_FH_scf.in
Warning: card  &IONS ignored
Warning: card  / ignored
Warning: card  &CELL ignored
Warning: card    PRESS=0.0 ignored
Warning: card    PRESS_CONV_THR=0.1 ignored
Warning: card  / ignored

     IMPORTANT: XC functional enforced from input :
     Exchange-correlation      = PBE ( 1 4 3 4 0)
     EXX-fraction              =        0.00
     Any further DFT definition will be discarded
     Please, verify this is what you really want

               file Fe.pbe-spn-kjpaw_psl.0.2.1.UPF: wavefunction(s)  3D renormalized
               file C.pbe-n-kjpaw_psl.0.1.upf: wavefunction(s)  2P renormalized
               file O.pbe-n-kjpaw_psl.0.1.UPF: wavefunction(s)  2P renormalized

     Subspace diagonalization in iterative solution of the eigenvalue problem:
     scalapack distributed-memory algorithm (size of sub-group:  2*  2 procs)


   Task Groups are in USE
   groups and procs/group :     2    6
 
     Parallelization info
     --------------------
     sticks:   dense  smooth     PW     G-vecs:    dense   smooth      PW
     Min         608     288     79               124119    40608    5765
     Max         610     289     80               124128    40659    5774
     Sum        7305    3457    949              1489451   487579   69203
 


     bravais-lattice index     =            0
     lattice parameter (alat)  =       1.8897  a.u.
     unit-cell volume          =    3898.2644 (a.u.)^3
     number of atoms/cell      =           23
     number of atomic types    =            3
     number of electrons       =       336.00
     number of Kohn-Sham states=          202
     kinetic-energy cutoff     =      95.0000  Ry
     charge density cutoff     =     800.0000  Ry
     convergence threshold     =      1.0E-08
     mixing beta               =       0.5000
     number of iterations used =            8  local-TF  mixing
     Exchange-correlation      = PBE ( 1 4 3 4 0)
     EXX-fraction              =        0.00

     celldm(1)=   1.889727  celldm(2)=   0.000000  celldm(3)=   0.000000
     celldm(4)=   0.000000  celldm(5)=   0.000000  celldm(6)=   0.000000

     crystal axes: (cart. coord. in units of alat)
               a(1) = (   5.665012   0.000000   0.000000 )  
               a(2) = (   0.000000   5.665012   0.000000 )  
               a(3) = (   0.000000   0.000000  18.000000 )  

     reciprocal axes: (cart. coord. in units 2 pi/alat)
               b(1) = (  0.176522 -0.000000  0.000000 )  
               b(2) = (  0.000000  0.176522  0.000000 )  
               b(3) = (  0.000000  0.000000  0.055556 )  


     PseudoPot. # 1 for Fe read from file:
     /work/e05/e05/ablar/QE_PSEUDO/Fe.pbe-spn-kjpaw_psl.0.2.1.UPF
     MD5 check sum: a0a08122d52b112de96d1da1d7dd020f
     Pseudo is Projector augmented-wave + core cor, Zval = 16.0
     Generated using "atomic" code by A. Dal Corso  v.5.0.2 svn rev. 9415
     Shape of augmentation charge: PSQ
     Using radial grid of 1191 points,  6 beta functions with: 
                l(1) =   0
                l(2) =   0
                l(3) =   1
                l(4) =   1
                l(5) =   2
                l(6) =   2
     Q(r) pseudized with 0 coefficients 


     PseudoPot. # 2 for  C read from file:
     /work/e05/e05/ablar/QE_PSEUDO/C.pbe-n-kjpaw_psl.0.1.upf
     MD5 check sum: 430fe95172b1e11ef3f8ed03bac87931
     Pseudo is Projector augmented-wave + core cor, Zval =  4.0
     Generated using "atomic" code by A. Dal Corso  v.5.0.99 svn rev. 10869
     Shape of augmentation charge: BESSEL
     Using radial grid of 1073 points,  4 beta functions with: 
                l(1) =   0
                l(2) =   0
                l(3) =   1
                l(4) =   1
     Q(r) pseudized with 0 coefficients 


     PseudoPot. # 3 for  O read from file:
     /work/e05/e05/ablar/QE_PSEUDO/O.pbe-n-kjpaw_psl.0.1.UPF
     MD5 check sum: 1d826bf4880e2aee2c3af49d0719521d
     Pseudo is Projector augmented-wave + core cor, Zval =  6.0
     Generated using "atomic" code by A. Dal Corso  v.5.0.2 svn rev. 9415
     Shape of augmentation charge: BESSEL
     Using radial grid of 1095 points,  4 beta functions with: 
                l(1) =   0
                l(2) =   0
                l(3) =   1
                l(4) =   1
     Q(r) pseudized with 0 coefficients 


     atomic species   valence    mass     pseudopotential
        Fe            16.00    55.85000     Fe( 1.00)
        C              4.00    12.00000      C( 1.00)
        O              6.00    16.00000      O( 1.00)

     Starting magnetic structure 
     atomic species   magnetization
        Fe           0.600
        C            0.000
        O            0.000


     Simplified LDA+U calculation (l_max = 2) with parameters (eV):
     atomic species    L          U    alpha       J0     beta
        Fe             2     0.0000   0.0000   0.0000   0.0000



     No symmetry found


                                    s                        frac. trans.

      isym =  1     identity                                     

 cryst.   s( 1) = (     1          0          0      )
                  (     0          1          0      )
                  (     0          0          1      )

 cart.    s( 1) = (  1.0000000  0.0000000  0.0000000 )
                  (  0.0000000  1.0000000  0.0000000 )
                  (  0.0000000  0.0000000  1.0000000 )


     point group C_1 (1)    
     there are  1 classes
     the character table:

       E    
A      1.00

     the symmetry operations in each class:
     E        1

   Cartesian axes

     site n.     atom                  positions (alat units)
         1           Fe  tau(   1) = (   0.0000000   0.0000000  -2.8324989  )
         2           Fe  tau(   2) = (   0.0000000   2.8325089  -2.8324989  )
         3           Fe  tau(   3) = (   2.8325089   0.0000000  -2.8324989  )
         4           Fe  tau(   4) = (   2.8324989   2.8325089  -2.8324989  )
         5           Fe  tau(   5) = (   1.4162494   1.4162494  -1.4162594  )
         6           Fe  tau(   6) = (   1.4162494  -1.4162494  -1.4162594  )
         7           Fe  tau(   7) = (  -1.4162494   1.4162494  -1.4162594  )
         8           Fe  tau(   8) = (  -1.4162494  -1.4162494  -1.4162594  )
         9           Fe  tau(   9) = (   0.0000000   0.0000000   0.0000000  )
        10           Fe  tau(  10) = (   0.0000000   2.8324989   0.0000000  )
        11           Fe  tau(  11) = (   2.8324989   0.0000000   0.0000000  )
        12           Fe  tau(  12) = (   2.8324989   2.8324989   0.0000000  )
        13           Fe  tau(  13) = (   1.4039058   1.4081050   1.4147069  )
        14           Fe  tau(  14) = (   1.4172670  -1.4107878   1.3943714  )
        15           Fe  tau(  15) = (  -1.4154408   1.4390578   1.4387475  )
        16           Fe  tau(  16) = (  -1.4218781  -1.4193253   1.4071222  )
        17           Fe  tau(  17) = (  -0.0860061  -0.1053545   2.8930975  )
        18           Fe  tau(  18) = (   0.0471539   2.8841531   2.8840123  )
        19           Fe  tau(  19) = (   2.8115619   0.0741081   2.8252183  )
        20           Fe  tau(  20) = (   2.8860115   2.9448785   2.8847590  )
        21           C   tau(  21) = (   1.5606212   1.0531833   3.9931187  )
        22           O   tau(  22) = (   1.5011444   2.3673588   4.2651588  )
        23           O   tau(  23) = (   0.7744787   0.2486402   4.6329513  )

   Crystallographic axes

     site n.     atom                  positions (cryst. coord.)
         1           Fe  tau(   1) = (  0.0000000  0.0000000 -0.1573610  )
         2           Fe  tau(   2) = ( -0.0000000  0.5000005 -0.1573610  )
         3           Fe  tau(   3) = (  0.5000005  0.0000000 -0.1573610  )
         4           Fe  tau(   4) = (  0.4999987  0.5000005 -0.1573610  )
         5           Fe  tau(   5) = (  0.2499994  0.2499994 -0.0786811  )
         6           Fe  tau(   6) = (  0.2499994 -0.2499994 -0.0786811  )
         7           Fe  tau(   7) = ( -0.2499994  0.2499994 -0.0786811  )
         8           Fe  tau(   8) = ( -0.2499994 -0.2499994 -0.0786811  )
         9           Fe  tau(   9) = (  0.0000000  0.0000000  0.0000000  )
        10           Fe  tau(  10) = ( -0.0000000  0.4999987  0.0000000  )
        11           Fe  tau(  11) = (  0.4999987  0.0000000  0.0000000  )
        12           Fe  tau(  12) = (  0.4999987  0.4999987  0.0000000  )
        13           Fe  tau(  13) = (  0.2478204  0.2485617  0.0785948  )
        14           Fe  tau(  14) = (  0.2501790 -0.2490353  0.0774651  )
        15           Fe  tau(  15) = ( -0.2498566  0.2540256  0.0799304  )
        16           Fe  tau(  16) = ( -0.2509930 -0.2505423  0.0781735  )
        17           Fe  tau(  17) = ( -0.0151820 -0.0185974  0.1607276  )
        18           Fe  tau(  18) = (  0.0083237  0.5091169  0.1602229  )
        19           Fe  tau(  19) = (  0.4963029  0.0130817  0.1569566  )
        20           Fe  tau(  20) = (  0.5094449  0.5198362  0.1602644  )
        21           C   tau(  21) = (  0.2754842  0.1859102  0.2218399  )
        22           O   tau(  22) = (  0.2649852  0.4178912  0.2369533  )
        23           O   tau(  23) = (  0.1367126  0.0438905  0.2573862  )

     number of k points=    20  Marzari-Vanderbilt smearing, width (Ry)=  0.0400
                       cart. coord. in units 2pi/alat
        k(    1) = (   0.0000000   0.0000000   0.0000000), wk =   0.0625000
        k(    2) = (   0.0000000   0.0441305   0.0000000), wk =   0.1250000
        k(    3) = (   0.0000000  -0.0882611   0.0000000), wk =   0.0625000
        k(    4) = (   0.0441305   0.0441305   0.0000000), wk =   0.1250000
        k(    5) = (   0.0441305  -0.0882611   0.0000000), wk =   0.1250000
        k(    6) = (  -0.0882611  -0.0882611   0.0000000), wk =   0.0625000
        k(    7) = (   0.0441305  -0.0000000   0.0000000), wk =   0.1250000
        k(    8) = (  -0.0882611   0.0000000   0.0000000), wk =   0.0625000
        k(    9) = (  -0.0441305   0.0441305   0.0000000), wk =   0.1250000
        k(   10) = (  -0.0882611   0.0441305   0.0000000), wk =   0.1250000
        k(   11) = (   0.0000000   0.0000000   0.0000000), wk =   0.0625000
        k(   12) = (   0.0000000   0.0441305   0.0000000), wk =   0.1250000
        k(   13) = (   0.0000000  -0.0882611   0.0000000), wk =   0.0625000
        k(   14) = (   0.0441305   0.0441305   0.0000000), wk =   0.1250000
        k(   15) = (   0.0441305  -0.0882611   0.0000000), wk =   0.1250000
        k(   16) = (  -0.0882611  -0.0882611   0.0000000), wk =   0.0625000
        k(   17) = (   0.0441305  -0.0000000   0.0000000), wk =   0.1250000
        k(   18) = (  -0.0882611   0.0000000   0.0000000), wk =   0.0625000
        k(   19) = (  -0.0441305   0.0441305   0.0000000), wk =   0.1250000
        k(   20) = (  -0.0882611   0.0441305   0.0000000), wk =   0.1250000

                       cryst. coord.
        k(    1) = (   0.0000000   0.0000000   0.0000000), wk =   0.0625000
        k(    2) = (   0.0000000   0.2500000   0.0000000), wk =   0.1250000
        k(    3) = (   0.0000000  -0.5000000   0.0000000), wk =   0.0625000
        k(    4) = (   0.2500000   0.2500000   0.0000000), wk =   0.1250000
        k(    5) = (   0.2500000  -0.5000000   0.0000000), wk =   0.1250000
        k(    6) = (  -0.5000000  -0.5000000   0.0000000), wk =   0.0625000
        k(    7) = (   0.2500000   0.0000000   0.0000000), wk =   0.1250000
        k(    8) = (  -0.5000000  -0.0000000   0.0000000), wk =   0.0625000
        k(    9) = (  -0.2500000   0.2500000   0.0000000), wk =   0.1250000
        k(   10) = (  -0.5000000   0.2500000   0.0000000), wk =   0.1250000
        k(   11) = (   0.0000000   0.0000000   0.0000000), wk =   0.0625000
        k(   12) = (   0.0000000   0.2500000   0.0000000), wk =   0.1250000
        k(   13) = (   0.0000000  -0.5000000   0.0000000), wk =   0.0625000
        k(   14) = (   0.2500000   0.2500000   0.0000000), wk =   0.1250000
        k(   15) = (   0.2500000  -0.5000000   0.0000000), wk =   0.1250000
        k(   16) = (  -0.5000000  -0.5000000   0.0000000), wk =   0.0625000
        k(   17) = (   0.2500000   0.0000000   0.0000000), wk =   0.1250000
        k(   18) = (  -0.5000000  -0.0000000   0.0000000), wk =   0.0625000
        k(   19) = (  -0.2500000   0.2500000   0.0000000), wk =   0.1250000
        k(   20) = (  -0.5000000   0.2500000   0.0000000), wk =   0.1250000

     Dense  grid:  1489451 G-vectors     FFT dimensions: ( 100, 100, 320)

     Smooth grid:   487579 G-vectors     FFT dimensions: (  72,  72, 216)

     Largest allocated arrays     est. size (Mb)     dimensions
        Kohn-Sham Wavefunctions        15.74 Mb     (   5107,  202)
        Atomic wavefunctions           21.20 Mb     (   5107,  272)
        NL pseudopotentials            29.92 Mb     (   5107,  384)
        Each V/rho on FFT grid          8.24 Mb     ( 270000,   2)
        Each G-vector array             0.95 Mb     ( 124120)
        G-vector shells                 0.34 Mb     (  44791)
     Largest temporary arrays     est. size (Mb)     dimensions
        Auxiliary wavefunctions        62.96 Mb     (   5107,  808)
        Each subspace H/S matrix        2.49 Mb     ( 404, 404)
        Each <psi_i|beta_j> matrix      1.18 Mb     (    384,  202)
        Arrays for rho mixing          32.96 Mb     ( 270000,   8)

     Check: negative/imaginary core charge=   -0.000011    0.000000

     Initial potential from superposition of free atoms

     starting charge  335.99119, renormalised to  336.00000

     negative rho (up, down):  0.415E-04 0.167E-04
 --- in v_hubbard ---
Hubbard energy    0.0000
 -------
     Number of +U iterations with fixed ns =  0
     Starting occupations:
 --- enter write_ns ---
 LDA+U parameters:
U( 1)     =  0.00000000
alpha( 1) =  0.00000000
atom    1   Tr[ns(na)] (up, down, total) =   5.00000  1.00000  6.00000
   spin  1
    eigenvalues: 
  1.000  1.000  1.000  1.000  1.000
    eigenvectors:
  1.000  0.000  0.000  0.000  0.000
  0.000  1.000  0.000  0.000  0.000
  0.000  0.000  1.000  0.000  0.000
  0.000  0.000  0.000  1.000  0.000
  0.000  0.000  0.000  0.000  1.000
    occupations:
  1.000  0.000  0.000  0.000  0.000
  0.000  1.000  0.000  0.000  0.000
  0.000  0.000  1.000  0.000  0.000
  0.000  0.000  0.000  1.000  0.000
  0.000  0.000  0.000  0.000  1.000
   spin  2
    eigenvalues: 
  0.200  0.200  0.200  0.200  0.200
    eigenvectors:
  1.000  0.000  0.000  0.000  0.000
  0.000  1.000  0.000  0.000  0.000
  0.000  0.000  1.000  0.000  0.000
  0.000  0.000  0.000  1.000  0.000
  0.000  0.000  0.000  0.000  1.000
    occupations:
  0.200  0.000  0.000  0.000  0.000
  0.000  0.200  0.000  0.000  0.000
  0.000  0.000  0.200  0.000  0.000
  0.000  0.000  0.000  0.200  0.000
  0.000  0.000  0.000  0.000  0.200
atomic mag. moment =     4.000000
atom    2   Tr[ns(na)] (up, down, total) =   5.00000  1.00000  6.00000
   spin  1
    eigenvalues: 
  1.000  1.000  1.000  1.000  1.000
    eigenvectors:
  1.000  0.000  0.000  0.000  0.000
  0.000  1.000  0.000  0.000  0.000
  0.000  0.000  1.000  0.000  0.000
  0.000  0.000  0.000  1.000  0.000
  0.000  0.000  0.000  0.000  1.000
    occupations:
  1.000  0.000  0.000  0.000  0.000
  0.000  1.000  0.000  0.000  0.000
  0.000  0.000  1.000  0.000  0.000
  0.000  0.000  0.000  1.000  0.000
  0.000  0.000  0.000  0.000  1.000
   spin  2
    eigenvalues: 
  0.200  0.200  0.200  0.200  0.200
    eigenvectors:
  1.000  0.000  0.000  0.000  0.000
  0.000  1.000  0.000  0.000  0.000
  0.000  0.000  1.000  0.000  0.000
  0.000  0.000  0.000  1.000  0.000
  0.000  0.000  0.000  0.000  1.000
    occupations:
  0.200  0.000  0.000  0.000  0.000
  0.000  0.200  0.000  0.000  0.000
  0.000  0.000  0.200  0.000  0.000
  0.000  0.000  0.000  0.200  0.000
  0.000  0.000  0.000  0.000  0.200
atomic mag. moment =     4.000000
atom    3   Tr[ns(na)] (up, down, total) =   5.00000  1.00000  6.00000
   spin  1
    eigenvalues: 
  1.000  1.000  1.000  1.000  1.000
    eigenvectors:
  1.000  0.000  0.000  0.000  0.000
  0.000  1.000  0.000  0.000  0.000
  0.000  0.000  1.000  0.000  0.000
  0.000  0.000  0.000  1.000  0.000
  0.000  0.000  0.000  0.000  1.000
    occupations:
  1.000  0.000  0.000  0.000  0.000
  0.000  1.000  0.000  0.000  0.000
  0.000  0.000  1.000  0.000  0.000
  0.000  0.000  0.000  1.000  0.000
  0.000  0.000  0.000  0.000  1.000
   spin  2
    eigenvalues: 
  0.200  0.200  0.200  0.200  0.200
    eigenvectors:
  1.000  0.000  0.000  0.000  0.000
  0.000  1.000  0.000  0.000  0.000
  0.000  0.000  1.000  0.000  0.000
  0.000  0.000  0.000  1.000  0.000
  0.000  0.000  0.000  0.000  1.000
    occupations:
  0.200  0.000  0.000  0.000  0.000
  0.000  0.200  0.000  0.000  0.000
  0.000  0.000  0.200  0.000  0.000
  0.000  0.000  0.000  0.200  0.000
  0.000  0.000  0.000  0.000  0.200
atomic mag. moment =     4.000000
atom    4   Tr[ns(na)] (up, down, total) =   5.00000  1.00000  6.00000
   spin  1
    eigenvalues: 
  1.000  1.000  1.000  1.000  1.000
    eigenvectors:
  1.000  0.000  0.000  0.000  0.000
  0.000  1.000  0.000  0.000  0.000
  0.000  0.000  1.000  0.000  0.000
  0.000  0.000  0.000  1.000  0.000
  0.000  0.000  0.000  0.000  1.000
    occupations:
  1.000  0.000  0.000  0.000  0.000
  0.000  1.000  0.000  0.000  0.000
  0.000  0.000  1.000  0.000  0.000
  0.000  0.000  0.000  1.000  0.000
  0.000  0.000  0.000  0.000  1.000
   spin  2
    eigenvalues: 
  0.200  0.200  0.200  0.200  0.200
    eigenvectors:
  1.000  0.000  0.000  0.000  0.000
  0.000  1.000  0.000  0.000  0.000
  0.000  0.000  1.000  0.000  0.000
  0.000  0.000  0.000  1.000  0.000
  0.000  0.000  0.000  0.000  1.000
    occupations:
  0.200  0.000  0.000  0.000  0.000
  0.000  0.200  0.000  0.000  0.000
  0.000  0.000  0.200  0.000  0.000
  0.000  0.000  0.000  0.200  0.000
  0.000  0.000  0.000  0.000  0.200
atomic mag. moment =     4.000000
atom    5   Tr[ns(na)] (up, down, total) =   5.00000  1.00000  6.00000
   spin  1
    eigenvalues: 
  1.000  1.000  1.000  1.000  1.000
    eigenvectors:
  1.000  0.000  0.000  0.000  0.000
  0.000  1.000  0.000  0.000  0.000
  0.000  0.000  1.000  0.000  0.000
  0.000  0.000  0.000  1.000  0.000
  0.000  0.000  0.000  0.000  1.000
    occupations:
  1.000  0.000  0.000  0.000  0.000
  0.000  1.000  0.000  0.000  0.000
  0.000  0.000  1.000  0.000  0.000
  0.000  0.000  0.000  1.000  0.000
  0.000  0.000  0.000  0.000  1.000
   spin  2
    eigenvalues: 
  0.200  0.200  0.200  0.200  0.200
    eigenvectors:
  1.000  0.000  0.000  0.000  0.000
  0.000  1.000  0.000  0.000  0.000
  0.000  0.000  1.000  0.000  0.000
  0.000  0.000  0.000  1.000  0.000
  0.000  0.000  0.000  0.000  1.000
    occupations:
  0.200  0.000  0.000  0.000  0.000
  0.000  0.200  0.000  0.000  0.000
  0.000  0.000  0.200  0.000  0.000
  0.000  0.000  0.000  0.200  0.000
  0.000  0.000  0.000  0.000  0.200
atomic mag. moment =     4.000000
atom    6   Tr[ns(na)] (up, down, total) =   5.00000  1.00000  6.00000
   spin  1
    eigenvalues: 
  1.000  1.000  1.000  1.000  1.000
    eigenvectors:
  1.000  0.000  0.000  0.000  0.000
  0.000  1.000  0.000  0.000  0.000
  0.000  0.000  1.000  0.000  0.000
  0.000  0.000  0.000  1.000  0.000
  0.000  0.000  0.000  0.000  1.000
    occupations:
  1.000  0.000  0.000  0.000  0.000
  0.000  1.000  0.000  0.000  0.000
  0.000  0.000  1.000  0.000  0.000
  0.000  0.000  0.000  1.000  0.000
  0.000  0.000  0.000  0.000  1.000
   spin  2
    eigenvalues: 
  0.200  0.200  0.200  0.200  0.200
    eigenvectors:
  1.000  0.000  0.000  0.000  0.000
  0.000  1.000  0.000  0.000  0.000
  0.000  0.000  1.000  0.000  0.000
  0.000  0.000  0.000  1.000  0.000
  0.000  0.000  0.000  0.000  1.000
    occupations:
  0.200  0.000  0.000  0.000  0.000
  0.000  0.200  0.000  0.000  0.000
  0.000  0.000  0.200  0.000  0.000
  0.000  0.000  0.000  0.200  0.000
  0.000  0.000  0.000  0.000  0.200
atomic mag. moment =     4.000000
atom    7   Tr[ns(na)] (up, down, total) =   5.00000  1.00000  6.00000
   spin  1
    eigenvalues: 
  1.000  1.000  1.000  1.000  1.000
    eigenvectors:
  1.000  0.000  0.000  0.000  0.000
  0.000  1.000  0.000  0.000  0.000
  0.000  0.000  1.000  0.000  0.000
  0.000  0.000  0.000  1.000  0.000
  0.000  0.000  0.000  0.000  1.000
    occupations:
  1.000  0.000  0.000  0.000  0.000
  0.000  1.000  0.000  0.000  0.000
  0.000  0.000  1.000  0.000  0.000
  0.000  0.000  0.000  1.000  0.000
  0.000  0.000  0.000  0.000  1.000
   spin  2
    eigenvalues: 
  0.200  0.200  0.200  0.200  0.200
    eigenvectors:
  1.000  0.000  0.000  0.000  0.000
  0.000  1.000  0.000  0.000  0.000
  0.000  0.000  1.000  0.000  0.000
  0.000  0.000  0.000  1.000  0.000
  0.000  0.000  0.000  0.000  1.000
    occupations:
  0.200  0.000  0.000  0.000  0.000
  0.000  0.200  0.000  0.000  0.000
  0.000  0.000  0.200  0.000  0.000
  0.000  0.000  0.000  0.200  0.000
  0.000  0.000  0.000  0.000  0.200
atomic mag. moment =     4.000000
atom    8   Tr[ns(na)] (up, down, total) =   5.00000  1.00000  6.00000
   spin  1
    eigenvalues: 
  1.000  1.000  1.000  1.000  1.000
    eigenvectors:
  1.000  0.000  0.000  0.000  0.000
  0.000  1.000  0.000  0.000  0.000
  0.000  0.000  1.000  0.000  0.000
  0.000  0.000  0.000  1.000  0.000
  0.000  0.000  0.000  0.000  1.000
    occupations:
  1.000  0.000  0.000  0.000  0.000
  0.000  1.000  0.000  0.000  0.000
  0.000  0.000  1.000  0.000  0.000
  0.000  0.000  0.000  1.000  0.000
  0.000  0.000  0.000  0.000  1.000
   spin  2
    eigenvalues: 
  0.200  0.200  0.200  0.200  0.200
    eigenvectors:
  1.000  0.000  0.000  0.000  0.000
  0.000  1.000  0.000  0.000  0.000
  0.000  0.000  1.000  0.000  0.000
  0.000  0.000  0.000  1.000  0.000
  0.000  0.000  0.000  0.000  1.000
    occupations:
  0.200  0.000  0.000  0.000  0.000
  0.000  0.200  0.000  0.000  0.000
  0.000  0.000  0.200  0.000  0.000
  0.000  0.000  0.000  0.200  0.000
  0.000  0.000  0.000  0.000  0.200
atomic mag. moment =     4.000000
atom    9   Tr[ns(na)] (up, down, total) =   5.00000  1.00000  6.00000
   spin  1
    eigenvalues: 
  1.000  1.000  1.000  1.000  1.000
    eigenvectors:
  1.000  0.000  0.000  0.000  0.000
  0.000  1.000  0.000  0.000  0.000
  0.000  0.000  1.000  0.000  0.000
  0.000  0.000  0.000  1.000  0.000
  0.000  0.000  0.000  0.000  1.000
    occupations:
  1.000  0.000  0.000  0.000  0.000
  0.000  1.000  0.000  0.000  0.000
  0.000  0.000  1.000  0.000  0.000
  0.000  0.000  0.000  1.000  0.000
  0.000  0.000  0.000  0.000  1.000
   spin  2
    eigenvalues: 
  0.200  0.200  0.200  0.200  0.200
    eigenvectors:
  1.000  0.000  0.000  0.000  0.000
  0.000  1.000  0.000  0.000  0.000
  0.000  0.000  1.000  0.000  0.000
  0.000  0.000  0.000  1.000  0.000
  0.000  0.000  0.000  0.000  1.000
    occupations:
  0.200  0.000  0.000  0.000  0.000
  0.000  0.200  0.000  0.000  0.000
  0.000  0.000  0.200  0.000  0.000
  0.000  0.000  0.000  0.200  0.000
  0.000  0.000  0.000  0.000  0.200
atomic mag. moment =     4.000000
atom   10   Tr[ns(na)] (up, down, total) =   5.00000  1.00000  6.00000
   spin  1
    eigenvalues: 
  1.000  1.000  1.000  1.000  1.000
    eigenvectors:
  1.000  0.000  0.000  0.000  0.000
  0.000  1.000  0.000  0.000  0.000
  0.000  0.000  1.000  0.000  0.000
  0.000  0.000  0.000  1.000  0.000
  0.000  0.000  0.000  0.000  1.000
    occupations:
  1.000  0.000  0.000  0.000  0.000
  0.000  1.000  0.000  0.000  0.000
  0.000  0.000  1.000  0.000  0.000
  0.000  0.000  0.000  1.000  0.000
  0.000  0.000  0.000  0.000  1.000
   spin  2
    eigenvalues: 
  0.200  0.200  0.200  0.200  0.200
    eigenvectors:
  1.000  0.000  0.000  0.000  0.000
  0.000  1.000  0.000  0.000  0.000
  0.000  0.000  1.000  0.000  0.000
  0.000  0.000  0.000  1.000  0.000
  0.000  0.000  0.000  0.000  1.000
    occupations:
  0.200  0.000  0.000  0.000  0.000
  0.000  0.200  0.000  0.000  0.000
  0.000  0.000  0.200  0.000  0.000
  0.000  0.000  0.000  0.200  0.000
  0.000  0.000  0.000  0.000  0.200
atomic mag. moment =     4.000000
atom   11   Tr[ns(na)] (up, down, total) =   5.00000  1.00000  6.00000
   spin  1
    eigenvalues: 
  1.000  1.000  1.000  1.000  1.000
    eigenvectors:
  1.000  0.000  0.000  0.000  0.000
  0.000  1.000  0.000  0.000  0.000
  0.000  0.000  1.000  0.000  0.000
  0.000  0.000  0.000  1.000  0.000
  0.000  0.000  0.000  0.000  1.000
    occupations:
  1.000  0.000  0.000  0.000  0.000
  0.000  1.000  0.000  0.000  0.000
  0.000  0.000  1.000  0.000  0.000
  0.000  0.000  0.000  1.000  0.000
  0.000  0.000  0.000  0.000  1.000
   spin  2
    eigenvalues: 
  0.200  0.200  0.200  0.200  0.200
    eigenvectors:
  1.000  0.000  0.000  0.000  0.000
  0.000  1.000  0.000  0.000  0.000
  0.000  0.000  1.000  0.000  0.000
  0.000  0.000  0.000  1.000  0.000
  0.000  0.000  0.000  0.000  1.000
    occupations:
  0.200  0.000  0.000  0.000  0.000
  0.000  0.200  0.000  0.000  0.000
  0.000  0.000  0.200  0.000  0.000
  0.000  0.000  0.000  0.200  0.000
  0.000  0.000  0.000  0.000  0.200
atomic mag. moment =     4.000000
atom   12   Tr[ns(na)] (up, down, total) =   5.00000  1.00000  6.00000
   spin  1
    eigenvalues: 
  1.000  1.000  1.000  1.000  1.000
    eigenvectors:
  1.000  0.000  0.000  0.000  0.000
  0.000  1.000  0.000  0.000  0.000
  0.000  0.000  1.000  0.000  0.000
  0.000  0.000  0.000  1.000  0.000
  0.000  0.000  0.000  0.000  1.000
    occupations:
  1.000  0.000  0.000  0.000  0.000
  0.000  1.000  0.000  0.000  0.000
  0.000  0.000  1.000  0.000  0.000
  0.000  0.000  0.000  1.000  0.000
  0.000  0.000  0.000  0.000  1.000
   spin  2
    eigenvalues: 
  0.200  0.200  0.200  0.200  0.200
    eigenvectors:
  1.000  0.000  0.000  0.000  0.000
  0.000  1.000  0.000  0.000  0.000
  0.000  0.000  1.000  0.000  0.000
  0.000  0.000  0.000  1.000  0.000
  0.000  0.000  0.000  0.000  1.000
    occupations:
  0.200  0.000  0.000  0.000  0.000
  0.000  0.200  0.000  0.000  0.000
  0.000  0.000  0.200  0.000  0.000
  0.000  0.000  0.000  0.200  0.000
  0.000  0.000  0.000  0.000  0.200
atomic mag. moment =     4.000000
atom   13   Tr[ns(na)] (up, down, total) =   5.00000  1.00000  6.00000
   spin  1
    eigenvalues: 
  1.000  1.000  1.000  1.000  1.000
    eigenvectors:
  1.000  0.000  0.000  0.000  0.000
  0.000  1.000  0.000  0.000  0.000
  0.000  0.000  1.000  0.000  0.000
  0.000  0.000  0.000  1.000  0.000
  0.000  0.000  0.000  0.000  1.000
    occupations:
  1.000  0.000  0.000  0.000  0.000
  0.000  1.000  0.000  0.000  0.000
  0.000  0.000  1.000  0.000  0.000
  0.000  0.000  0.000  1.000  0.000
  0.000  0.000  0.000  0.000  1.000
   spin  2
    eigenvalues: 
  0.200  0.200  0.200  0.200  0.200
    eigenvectors:
  1.000  0.000  0.000  0.000  0.000
  0.000  1.000  0.000  0.000  0.000
  0.000  0.000  1.000  0.000  0.000
  0.000  0.000  0.000  1.000  0.000
  0.000  0.000  0.000  0.000  1.000
    occupations:
  0.200  0.000  0.000  0.000  0.000
  0.000  0.200  0.000  0.000  0.000
  0.000  0.000  0.200  0.000  0.000
  0.000  0.000  0.000  0.200  0.000
  0.000  0.000  0.000  0.000  0.200
atomic mag. moment =     4.000000
atom   14   Tr[ns(na)] (up, down, total) =   5.00000  1.00000  6.00000
   spin  1
    eigenvalues: 
  1.000  1.000  1.000  1.000  1.000
    eigenvectors:
  1.000  0.000  0.000  0.000  0.000
  0.000  1.000  0.000  0.000  0.000
  0.000  0.000  1.000  0.000  0.000
  0.000  0.000  0.000  1.000  0.000
  0.000  0.000  0.000  0.000  1.000
    occupations:
  1.000  0.000  0.000  0.000  0.000
  0.000  1.000  0.000  0.000  0.000
  0.000  0.000  1.000  0.000  0.000
  0.000  0.000  0.000  1.000  0.000
  0.000  0.000  0.000  0.000  1.000
   spin  2
    eigenvalues: 
  0.200  0.200  0.200  0.200  0.200
    eigenvectors:
  1.000  0.000  0.000  0.000  0.000
  0.000  1.000  0.000  0.000  0.000
  0.000  0.000  1.000  0.000  0.000
  0.000  0.000  0.000  1.000  0.000
  0.000  0.000  0.000  0.000  1.000
    occupations:
  0.200  0.000  0.000  0.000  0.000
  0.000  0.200  0.000  0.000  0.000
  0.000  0.000  0.200  0.000  0.000
  0.000  0.000  0.000  0.200  0.000
  0.000  0.000  0.000  0.000  0.200
atomic mag. moment =     4.000000
atom   15   Tr[ns(na)] (up, down, total) =   5.00000  1.00000  6.00000
   spin  1
    eigenvalues: 
  1.000  1.000  1.000  1.000  1.000
    eigenvectors:
  1.000  0.000  0.000  0.000  0.000
  0.000  1.000  0.000  0.000  0.000
  0.000  0.000  1.000  0.000  0.000
  0.000  0.000  0.000  1.000  0.000
  0.000  0.000  0.000  0.000  1.000
    occupations:
  1.000  0.000  0.000  0.000  0.000
  0.000  1.000  0.000  0.000  0.000
  0.000  0.000  1.000  0.000  0.000
  0.000  0.000  0.000  1.000  0.000
  0.000  0.000  0.000  0.000  1.000
   spin  2
    eigenvalues: 
  0.200  0.200  0.200  0.200  0.200
    eigenvectors:
  1.000  0.000  0.000  0.000  0.000
  0.000  1.000  0.000  0.000  0.000
  0.000  0.000  1.000  0.000  0.000
  0.000  0.000  0.000  1.000  0.000
  0.000  0.000  0.000  0.000  1.000
    occupations:
  0.200  0.000  0.000  0.000  0.000
  0.000  0.200  0.000  0.000  0.000
  0.000  0.000  0.200  0.000  0.000
  0.000  0.000  0.000  0.200  0.000
  0.000  0.000  0.000  0.000  0.200
atomic mag. moment =     4.000000
atom   16   Tr[ns(na)] (up, down, total) =   5.00000  1.00000  6.00000
   spin  1
    eigenvalues: 
  1.000  1.000  1.000  1.000  1.000
    eigenvectors:
  1.000  0.000  0.000  0.000  0.000
  0.000  1.000  0.000  0.000  0.000
  0.000  0.000  1.000  0.000  0.000
  0.000  0.000  0.000  1.000  0.000
  0.000  0.000  0.000  0.000  1.000
    occupations:
  1.000  0.000  0.000  0.000  0.000
  0.000  1.000  0.000  0.000  0.000
  0.000  0.000  1.000  0.000  0.000
  0.000  0.000  0.000  1.000  0.000
  0.000  0.000  0.000  0.000  1.000
   spin  2
    eigenvalues: 
  0.200  0.200  0.200  0.200  0.200
    eigenvectors:
  1.000  0.000  0.000  0.000  0.000
  0.000  1.000  0.000  0.000  0.000
  0.000  0.000  1.000  0.000  0.000
  0.000  0.000  0.000  1.000  0.000
  0.000  0.000  0.000  0.000  1.000
    occupations:
  0.200  0.000  0.000  0.000  0.000
  0.000  0.200  0.000  0.000  0.000
  0.000  0.000  0.200  0.000  0.000
  0.000  0.000  0.000  0.200  0.000
  0.000  0.000  0.000  0.000  0.200
atomic mag. moment =     4.000000
atom   17   Tr[ns(na)] (up, down, total) =   5.00000  1.00000  6.00000
   spin  1
    eigenvalues: 
  1.000  1.000  1.000  1.000  1.000
    eigenvectors:
  1.000  0.000  0.000  0.000  0.000
  0.000  1.000  0.000  0.000  0.000
  0.000  0.000  1.000  0.000  0.000
  0.000  0.000  0.000  1.000  0.000
  0.000  0.000  0.000  0.000  1.000
    occupations:
  1.000  0.000  0.000  0.000  0.000
  0.000  1.000  0.000  0.000  0.000
  0.000  0.000  1.000  0.000  0.000
  0.000  0.000  0.000  1.000  0.000
  0.000  0.000  0.000  0.000  1.000
   spin  2
    eigenvalues: 
  0.200  0.200  0.200  0.200  0.200
    eigenvectors:
  1.000  0.000  0.000  0.000  0.000
  0.000  1.000  0.000  0.000  0.000
  0.000  0.000  1.000  0.000  0.000
  0.000  0.000  0.000  1.000  0.000
  0.000  0.000  0.000  0.000  1.000
    occupations:
  0.200  0.000  0.000  0.000  0.000
  0.000  0.200  0.000  0.000  0.000
  0.000  0.000  0.200  0.000  0.000
  0.000  0.000  0.000  0.200  0.000
  0.000  0.000  0.000  0.000  0.200
atomic mag. moment =     4.000000
atom   18   Tr[ns(na)] (up, down, total) =   5.00000  1.00000  6.00000
   spin  1
    eigenvalues: 
  1.000  1.000  1.000  1.000  1.000
    eigenvectors:
  1.000  0.000  0.000  0.000  0.000
  0.000  1.000  0.000  0.000  0.000
  0.000  0.000  1.000  0.000  0.000
  0.000  0.000  0.000  1.000  0.000
  0.000  0.000  0.000  0.000  1.000
    occupations:
  1.000  0.000  0.000  0.000  0.000
  0.000  1.000  0.000  0.000  0.000
  0.000  0.000  1.000  0.000  0.000
  0.000  0.000  0.000  1.000  0.000
  0.000  0.000  0.000  0.000  1.000
   spin  2
    eigenvalues: 
  0.200  0.200  0.200  0.200  0.200
    eigenvectors:
  1.000  0.000  0.000  0.000  0.000
  0.000  1.000  0.000  0.000  0.000
  0.000  0.000  1.000  0.000  0.000
  0.000  0.000  0.000  1.000  0.000
  0.000  0.000  0.000  0.000  1.000
    occupations:
  0.200  0.000  0.000  0.000  0.000
  0.000  0.200  0.000  0.000  0.000
  0.000  0.000  0.200  0.000  0.000
  0.000  0.000  0.000  0.200  0.000
  0.000  0.000  0.000  0.000  0.200
atomic mag. moment =     4.000000
atom   19   Tr[ns(na)] (up, down, total) =   5.00000  1.00000  6.00000
   spin  1
    eigenvalues: 
  1.000  1.000  1.000  1.000  1.000
    eigenvectors:
  1.000  0.000  0.000  0.000  0.000
  0.000  1.000  0.000  0.000  0.000
  0.000  0.000  1.000  0.000  0.000
  0.000  0.000  0.000  1.000  0.000
  0.000  0.000  0.000  0.000  1.000
    occupations:
  1.000  0.000  0.000  0.000  0.000
  0.000  1.000  0.000  0.000  0.000
  0.000  0.000  1.000  0.000  0.000
  0.000  0.000  0.000  1.000  0.000
  0.000  0.000  0.000  0.000  1.000
   spin  2
    eigenvalues: 
  0.200  0.200  0.200  0.200  0.200
    eigenvectors:
  1.000  0.000  0.000  0.000  0.000
  0.000  1.000  0.000  0.000  0.000
  0.000  0.000  1.000  0.000  0.000
  0.000  0.000  0.000  1.000  0.000
  0.000  0.000  0.000  0.000  1.000
    occupations:
  0.200  0.000  0.000  0.000  0.000
  0.000  0.200  0.000  0.000  0.000
  0.000  0.000  0.200  0.000  0.000
  0.000  0.000  0.000  0.200  0.000
  0.000  0.000  0.000  0.000  0.200
atomic mag. moment =     4.000000
atom   20   Tr[ns(na)] (up, down, total) =   5.00000  1.00000  6.00000
   spin  1
    eigenvalues: 
  1.000  1.000  1.000  1.000  1.000
    eigenvectors:
  1.000  0.000  0.000  0.000  0.000
  0.000  1.000  0.000  0.000  0.000
  0.000  0.000  1.000  0.000  0.000
  0.000  0.000  0.000  1.000  0.000
  0.000  0.000  0.000  0.000  1.000
    occupations:
  1.000  0.000  0.000  0.000  0.000
  0.000  1.000  0.000  0.000  0.000
  0.000  0.000  1.000  0.000  0.000
  0.000  0.000  0.000  1.000  0.000
  0.000  0.000  0.000  0.000  1.000
   spin  2
    eigenvalues: 
  0.200  0.200  0.200  0.200  0.200
    eigenvectors:
  1.000  0.000  0.000  0.000  0.000
  0.000  1.000  0.000  0.000  0.000
  0.000  0.000  1.000  0.000  0.000
  0.000  0.000  0.000  1.000  0.000
  0.000  0.000  0.000  0.000  1.000
    occupations:
  0.200  0.000  0.000  0.000  0.000
  0.000  0.200  0.000  0.000  0.000
  0.000  0.000  0.200  0.000  0.000
  0.000  0.000  0.000  0.200  0.000
  0.000  0.000  0.000  0.000  0.200
atomic mag. moment =     4.000000
N of occupied +U levels = 120.0000000
 --- exit write_ns ---
 Atomic wfc used for LDA+U Projector are NOT orthogonalized
     Starting wfc are  272 randomized atomic wfcs
     Checking if some PAW data can be deallocated... 
       node    0, deallocated PAW data for type:  2
       node    0, deallocated PAW data for type:  3
       node    1, deallocated PAW data for type:  2
       node    1, deallocated PAW data for type:  3
       node    2, deallocated PAW data for type:  2
       node    2, deallocated PAW data for type:  3
       node    3, deallocated PAW data for type:  2
       node    3, deallocated PAW data for type:  3
       node    4, deallocated PAW data for type:  2
       node    4, deallocated PAW data for type:  3
       node    5, deallocated PAW data for type:  2
       node    5, deallocated PAW data for type:  3
       node    6, deallocated PAW data for type:  2
       node    6, deallocated PAW data for type:  3
       node    7, deallocated PAW data for type:  2
       node    7, deallocated PAW data for type:  3
       node    8, deallocated PAW data for type:  2
       node    8, deallocated PAW data for type:  3
       node    9, deallocated PAW data for type:  2
       node    9, deallocated PAW data for type:  3
       node   10, deallocated PAW data for type:  2
       node   10, deallocated PAW data for type:  3
       node   11, deallocated PAW data for type:  2
       node   11, deallocated PAW data for type:  3
       node   12, deallocated PAW data for type:  2
       node   12, deallocated PAW data for type:  3
       node   13, deallocated PAW data for type:  2
       node   13, deallocated PAW data for type:  3
       node   14, deallocated PAW data for type:  2
       node   14, deallocated PAW data for type:  3
       node   15, deallocated PAW data for type:  2
       node   15, deallocated PAW data for type:  3
       node   16, deallocated PAW data for type:  2
       node   16, deallocated PAW data for type:  3
       node   17, deallocated PAW data for type:  2
       node   17, deallocated PAW data for type:  3
       node   18, deallocated PAW data for type:  2
       node   18, deallocated PAW data for type:  3
       node   19, deallocated PAW data for type:  2
       node   19, deallocated PAW data for type:  3
       node   20, deallocated PAW data for type:  2
       node   20, deallocated PAW data for type:  3
       node   21, deallocated PAW data for type:  2
       node   21, deallocated PAW data for type:  3
       node   22, deallocated PAW data for type:  2
       node   22, deallocated PAW data for type:  3
       node   23, deallocated PAW data for type:  2
       node   23, deallocated PAW data for type:  3
       node   24, deallocated PAW data for type:  2
       node   24, deallocated PAW data for type:  3
       node   25, deallocated PAW data for type:  2
       node   25, deallocated PAW data for type:  3
       node   26, deallocated PAW data for type:  2
       node   26, deallocated PAW data for type:  3
       node   27, deallocated PAW data for type:  2
       node   27, deallocated PAW data for type:  3
       node   28, deallocated PAW data for type:  2
       node   28, deallocated PAW data for type:  3
       node   29, deallocated PAW data for type:  2
       node   29, deallocated PAW data for type:  3
       node   30, deallocated PAW data for type:  2
       node   30, deallocated PAW data for type:  3
       node   31, deallocated PAW data for type:  2
       node   31, deallocated PAW data for type:  3
       node   32, deallocated PAW data for type:  2
       node   32, deallocated PAW data for type:  3
       node   33, deallocated PAW data for type:  2
       node   33, deallocated PAW data for type:  3
       node   34, deallocated PAW data for type:  2
       node   34, deallocated PAW data for type:  3
       node   35, deallocated PAW data for type:  2
       node   35, deallocated PAW data for type:  3
       node   36, deallocated PAW data for type:  2
       node   36, deallocated PAW data for type:  3
       node   37, deallocated PAW data for type:  2
       node   37, deallocated PAW data for type:  3
       node   38, deallocated PAW data for type:  2
       node   38, deallocated PAW data for type:  3
       node   39, deallocated PAW data for type:  2
       node   39, deallocated PAW data for type:  3
       node   40, deallocated PAW data for type:  2
       node   40, deallocated PAW data for type:  3
       node   41, deallocated PAW data for type:  2
       node   41, deallocated PAW data for type:  3
       node   42, deallocated PAW data for type:  1
       node   42, deallocated PAW data for type:  3
       node   43, deallocated PAW data for type:  1
       node   43, deallocated PAW data for type:  3
       node   44, deallocated PAW data for type:  1
       node   44, deallocated PAW data for type:  2
       node   45, deallocated PAW data for type:  1
       node   45, deallocated PAW data for type:  2
       node   46, deallocated PAW data for type:  1
       node   46, deallocated PAW data for type:  2
       node   47, deallocated PAW data for type:  1
       node   47, deallocated PAW data for type:  2

     total cpu time spent up to now is       55.5 secs

     per-process dynamical memory:   381.4 Mb

     Self-consistent Calculation

     iteration #  1     ecut=    95.00 Ry     beta=0.50
     Davidson diagonalization with overlap
     ethr =  1.00E-02,  avg # of iterations =  3.0
 --- enter write_ns ---
 LDA+U parameters:
U( 1)     =  0.00000000
alpha( 1) =  0.00000000
atom    1   Tr[ns(na)] (up, down, total) =   4.97518  1.02520  6.00038
   spin  1
    eigenvalues: 
  0.994  0.995  0.995  0.996  0.997
    eigenvectors:
  0.979  0.000  0.019  0.001  0.001
  0.019  0.028  0.941  0.013  0.000
  0.001  0.961  0.022  0.015  0.000
  0.001  0.000  0.000  0.002  0.997
  0.000  0.011  0.018  0.969  0.002
    occupations:
  0.994  0.000  0.000  0.000  0.000
  0.000  0.995  0.000  0.000  0.000
  0.000  0.000  0.995 -0.000  0.000
  0.000  0.000 -0.000  0.997 -0.000
  0.000  0.000  0.000 -0.000  0.995
   spin  2
    eigenvalues: 
  0.182  0.182  0.209  0.223  0.229
    eigenvectors:
  0.000  0.000  1.000  0.000  0.000
  0.890  0.110  0.000  0.000  0.000
  0.110  0.889  0.000  0.000  0.000
  0.000  0.000  0.000  0.998  0.002
  0.000  0.000  0.000  0.002  0.997
    occupations:
  0.209 -0.000 -0.000  0.000 -0.000
 -0.000  0.182  0.000 -0.000 -0.000
 -0.000  0.000  0.182  0.000 -0.001
  0.000 -0.000  0.000  0.223 -0.000
 -0.000 -0.000 -0.001 -0.000  0.229
atomic mag. moment =     3.949980
atom    2   Tr[ns(na)] (up, down, total) =   4.97411  1.02598  6.00008
   spin  1
    eigenvalues: 
  0.994  0.994  0.995  0.996  0.997
    eigenvectors:
  0.528  0.467  0.002  0.002  0.001
  0.462  0.531  0.007  0.000  0.000
  0.009  0.001  0.983  0.007  0.000
  0.001  0.001  0.000  0.000  0.999
  0.001  0.001  0.007  0.991  0.000
    occupations:
  0.994 -0.000 -0.000  0.000 -0.000
 -0.000  0.994 -0.000 -0.000 -0.000
 -0.000 -0.000  0.995  0.000  0.000
  0.000 -0.000  0.000  0.997 -0.000
 -0.000 -0.000  0.000 -0.000  0.996
   spin  2
    eigenvalues: 
  0.182  0.183  0.209  0.223  0.229
    eigenvectors:
  0.000  0.000  0.999  0.000  0.000
  0.334  0.666  0.000  0.000  0.000
  0.666  0.334  0.000  0.000  0.000
  0.000  0.000  0.000  0.998  0.001
  0.000  0.000  0.000  0.001  0.999
    occupations:
  0.209  0.000  0.000 -0.000  0.000
  0.000  0.183 -0.000  0.000  0.000
  0.000 -0.000  0.182  0.000  0.000
 -0.000  0.000  0.000  0.223  0.000
  0.000  0.000  0.000  0.000  0.229
atomic mag. moment =     3.948128
atom    3   Tr[ns(na)] (up, down, total) =   4.97481  1.02644  6.00124
   spin  1
    eigenvalues: 
  0.994  0.994  0.995  0.996  0.997
    eigenvectors:
  0.994  0.000  0.003  0.003  0.000
  0.004  0.004  0.991  0.002  0.000
  0.000  0.993  0.004  0.003  0.000
  0.000  0.000  0.000  0.000  1.000
  0.003  0.003  0.002  0.992  0.000
    occupations:
  0.994 -0.000  0.000  0.000 -0.000
 -0.000  0.995 -0.000 -0.000  0.000
  0.000 -0.000  0.994  0.000 -0.000
  0.000 -0.000  0.000  0.997  0.000
 -0.000  0.000 -0.000  0.000  0.996
   spin  2
    eigenvalues: 
  0.182  0.183  0.209  0.224  0.229
    eigenvectors:
  0.000  0.000  0.999  0.001  0.000
  0.518  0.482  0.000  0.000  0.000
  0.482  0.518  0.000  0.000  0.000
  0.000  0.000  0.001  0.999  0.000
  0.000  0.000  0.000  0.000  0.999
    occupations:
  0.209 -0.000  0.000 -0.000  0.000
 -0.000  0.183  0.000 -0.000 -0.000
  0.000  0.000  0.183 -0.000  0.000
 -0.000 -0.000 -0.000  0.224 -0.000
  0.000 -0.000  0.000 -0.000  0.229
atomic mag. moment =     3.948370
atom    4   Tr[ns(na)] (up, down, total) =   4.97385  1.02511  5.99896
   spin  1
    eigenvalues: 
  0.993  0.994  0.994  0.996  0.997
    eigenvectors:
  0.723  0.276  0.000  0.000  0.001
  0.275  0.723  0.001  0.000  0.000
  0.000  0.001  0.995  0.003  0.000
  0.001  0.000  0.001  0.006  0.993
  0.001  0.000  0.003  0.990  0.006
    occupations:
  0.993  0.000 -0.000  0.000  0.000
  0.000  0.994 -0.000 -0.000 -0.000
 -0.000 -0.000  0.994  0.000 -0.000
  0.000 -0.000  0.000  0.997  0.000
  0.000 -0.000 -0.000  0.000  0.996
   spin  2
    eigenvalues: 
  0.182  0.182  0.209  0.223  0.229
    eigenvectors:
  0.000  0.000  0.999  0.000  0.000
  0.009  0.991  0.000  0.000  0.000
  0.991  0.009  0.000  0.000  0.000
  0.000  0.000  0.000  0.998  0.002
  0.000  0.000  0.000  0.002  0.997
    occupations:
  0.209 -0.000  0.000  0.000 -0.000
 -0.000  0.182 -0.000 -0.000  0.000
  0.000 -0.000  0.182 -0.000  0.000
  0.000 -0.000 -0.000  0.223  0.000
 -0.000  0.000  0.000  0.000  0.229
atomic mag. moment =     3.948741
atom    5   Tr[ns(na)] (up, down, total) =   4.98066  2.25160  7.23226
   spin  1
    eigenvalues: 
  0.996  0.996  0.996  0.996  0.997
    eigenvectors:
  0.000  0.000  0.000  0.002  0.998
  0.299  0.029  0.661  0.010  0.000
  0.489  0.357  0.100  0.054  0.000
  0.014  0.022  0.029  0.933  0.002
  0.197  0.592  0.211  0.000  0.000
    occupations:
  0.997 -0.000 -0.000  0.000  0.000
 -0.000  0.996 -0.000 -0.000  0.000
 -0.000 -0.000  0.996  0.000  0.000
  0.000 -0.000  0.000  0.996 -0.000
  0.000  0.000  0.000 -0.000  0.996
   spin  2
    eigenvalues: 
  0.392  0.398  0.483  0.489  0.489
    eigenvectors:
  0.988  0.012  0.000  0.000  0.000
  0.000  0.000  0.019  0.253  0.728
  0.000  0.000  0.012  0.746  0.241
  0.012  0.988  0.000  0.000  0.000
  0.000  0.000  0.969  0.001  0.030
    occupations:
  0.392 -0.000  0.000 -0.001  0.000
 -0.000  0.489 -0.000 -0.001 -0.001
  0.000 -0.000  0.489  0.000  0.001
 -0.001 -0.001  0.000  0.398 -0.000
  0.000 -0.001  0.001 -0.000  0.483
atomic mag. moment =     2.729053
atom    6   Tr[ns(na)] (up, down, total) =   4.97995  2.25485  7.23481
   spin  1
    eigenvalues: 
  0.995  0.996  0.996  0.996  0.997
    eigenvectors:
  0.000  0.002  0.003  0.056  0.939
  0.063  0.611  0.304  0.021  0.001
  0.929  0.024  0.045  0.000  0.001
  0.002  0.006  0.014  0.919  0.059
  0.006  0.357  0.634  0.003  0.000
    occupations:
  0.997 -0.000  0.000 -0.000  0.000
 -0.000  0.996 -0.000 -0.000 -0.000
  0.000 -0.000  0.995 -0.000  0.000
 -0.000 -0.000 -0.000  0.996  0.000
  0.000 -0.000  0.000  0.000  0.996
   spin  2
    eigenvalues: 
  0.398  0.399  0.483  0.486  0.488
    eigenvectors:
  0.768  0.232  0.000  0.000  0.000
  0.000  0.000  0.024  0.131  0.845
  0.000  0.000  0.018  0.864  0.118
  0.232  0.768  0.000  0.000  0.000
  0.000  0.000  0.958  0.005  0.037
    occupations:
  0.398  0.000  0.000 -0.000 -0.001
  0.000  0.488  0.001 -0.000 -0.001
  0.000  0.001  0.487  0.001 -0.001
 -0.000 -0.000  0.001  0.399  0.000
 -0.001 -0.001 -0.001  0.000  0.483
atomic mag. moment =     2.725100
atom    7   Tr[ns(na)] (up, down, total) =   4.98000  2.25143  7.23143
   spin  1
    eigenvalues: 
  0.995  0.996  0.996  0.996  0.997
    eigenvectors:
  0.001  0.007  0.002  0.052  0.938
  0.840  0.062  0.086  0.011  0.001
  0.066  0.894  0.003  0.035  0.002
  0.023  0.018  0.000  0.902  0.057
  0.071  0.019  0.908  0.001  0.001
    occupations:
  0.997  0.000 -0.000  0.000  0.000
  0.000  0.995 -0.000  0.000  0.000
 -0.000 -0.000  0.996  0.000  0.000
  0.000  0.000  0.000  0.996 -0.000
  0.000  0.000  0.000 -0.000  0.996
   spin  2
    eigenvalues: 
  0.395  0.398  0.482  0.487  0.489
    eigenvectors:
  0.964  0.036  0.000  0.000  0.000
  0.000  0.000  0.008  0.860  0.131
  0.000  0.000  0.000  0.133  0.867
  0.036  0.964  0.000  0.000  0.000
  0.000  0.000  0.992  0.007  0.002
    occupations:
  0.396 -0.001 -0.000  0.000 -0.000
 -0.001  0.487  0.001  0.000 -0.000
 -0.000  0.001  0.489 -0.001 -0.000
  0.000  0.000 -0.001  0.398 -0.000
 -0.000 -0.000 -0.000 -0.000  0.482
atomic mag. moment =     2.728575
atom    8   Tr[ns(na)] (up, down, total) =   4.97987  2.25693  7.23680
   spin  1
    eigenvalues: 
  0.996  0.996  0.996  0.996  0.996
    eigenvectors:
  0.016  0.001  0.002  0.062  0.919
  0.258  0.731  0.002  0.005  0.004
  0.565  0.211  0.187  0.029  0.008
  0.004  0.020  0.003  0.904  0.069
  0.157  0.037  0.806  0.000  0.000
    occupations:
  0.996  0.000  0.000  0.000  0.000
  0.000  0.996 -0.000  0.000 -0.000
  0.000 -0.000  0.996 -0.000 -0.000
  0.000  0.000 -0.000  0.996 -0.000
  0.000 -0.000 -0.000 -0.000  0.996
   spin  2
    eigenvalues: 
  0.397  0.398  0.484  0.489  0.490
    eigenvectors:
  0.983  0.017  0.000  0.000  0.000
  0.000  0.000  0.076  0.152  0.772
  0.000  0.000  0.002  0.844  0.154
  0.017  0.983  0.000  0.000  0.000
  0.000  0.000  0.922  0.004  0.074
    occupations:
  0.397  0.000 -0.001 -0.000  0.001
  0.000  0.489 -0.000  0.000 -0.002
 -0.001 -0.000  0.489  0.000  0.000
 -0.000  0.000  0.000  0.398  0.000
  0.001 -0.002  0.000  0.000  0.484
atomic mag. moment =     2.722942
atom    9   Tr[ns(na)] (up, down, total) =   4.97907  2.24743  7.22650
   spin  1
    eigenvalues: 
  0.995  0.995  0.995  0.997  0.998
    eigenvectors:
  0.000  0.000  0.000  0.001  0.999
  0.028  0.950  0.021  0.001  0.000
  0.968  0.030  0.001  0.001  0.000
  0.001  0.000  0.000  0.998  0.001
  0.003  0.019  0.978  0.000  0.000
    occupations:
  0.997  0.000  0.000 -0.000  0.000
  0.000  0.995 -0.000  0.000 -0.000
  0.000 -0.000  0.995  0.000 -0.000
 -0.000  0.000  0.000  0.997  0.000
  0.000 -0.000 -0.000  0.000  0.995
   spin  2
    eigenvalues: 
  0.352  0.386  0.492  0.499  0.519
    eigenvectors:
  0.998  0.001  0.000  0.000  0.000
  0.000  0.000  0.552  0.375  0.074
  0.000  0.000  0.393  0.605  0.001
  0.001  0.998  0.000  0.000  0.000
  0.000  0.000  0.055  0.020  0.925
    occupations:
  0.352  0.000 -0.000  0.001 -0.002
  0.000  0.496  0.003  0.001  0.006
 -0.000  0.003  0.496  0.002 -0.002
  0.001  0.001  0.002  0.386  0.001
 -0.002  0.006 -0.002  0.001  0.517
atomic mag. moment =     2.731643
atom   10   Tr[ns(na)] (up, down, total) =   4.97826  2.26163  7.23988
   spin  1
    eigenvalues: 
  0.994  0.995  0.995  0.997  0.997
    eigenvectors:
  0.001  0.000  0.000  0.004  0.994
  0.987  0.000  0.012  0.000  0.001
  0.000  0.998  0.001  0.000  0.000
  0.000  0.000  0.001  0.994  0.005
  0.012  0.001  0.985  0.001  0.000
    occupations:
  0.997  0.000 -0.000 -0.000 -0.000
  0.000  0.994 -0.000  0.000  0.000
 -0.000 -0.000  0.995 -0.000 -0.000
 -0.000  0.000 -0.000  0.997 -0.000
 -0.000  0.000 -0.000 -0.000  0.995
   spin  2
    eigenvalues: 
  0.353  0.388  0.497  0.500  0.524
    eigenvectors:
  0.999  0.000  0.000  0.000  0.000
  0.000  0.000  0.434  0.516  0.049
  0.000  0.000  0.540  0.460  0.000
  0.000  0.999  0.000  0.000  0.000
  0.000  0.000  0.026  0.024  0.950
    occupations:
  0.353  0.002 -0.000 -0.001  0.001
  0.002  0.500 -0.001  0.000 -0.006
 -0.000 -0.001  0.498 -0.001 -0.001
 -0.001  0.000 -0.001  0.388 -0.000
  0.001 -0.006 -0.001 -0.000  0.523
atomic mag. moment =     2.716630
atom   11   Tr[ns(na)] (up, down, total) =   4.97838  2.24980  7.22818
   spin  1
    eigenvalues: 
  0.994  0.995  0.995  0.997  0.997
    eigenvectors:
  0.003  0.000  0.001  0.013  0.982
  0.014  0.986  0.000  0.000  0.000
  0.982  0.014  0.000  0.000  0.003
  0.000  0.000  0.000  0.986  0.013
  0.000  0.000  0.999  0.000  0.001
    occupations:
  0.997 -0.000  0.000  0.000 -0.000
 -0.000  0.995  0.000  0.000  0.000
  0.000  0.000  0.994  0.000 -0.000
  0.000  0.000  0.000  0.997  0.000
 -0.000  0.000 -0.000  0.000  0.995
   spin  2
    eigenvalues: 
  0.356  0.386  0.491  0.497  0.520
    eigenvectors:
  0.997  0.002  0.000  0.001  0.000
  0.000  0.000  0.784  0.178  0.038
  0.000  0.000  0.188  0.811  0.000
  0.002  0.998  0.000  0.000  0.000
  0.000  0.000  0.028  0.011  0.962
    occupations:
  0.356 -0.003  0.002  0.001  0.002
 -0.003  0.493 -0.002  0.000  0.005
  0.002 -0.002  0.496  0.000 -0.000
  0.001  0.000  0.000  0.386 -0.000
  0.002  0.005 -0.000 -0.000  0.518
atomic mag. moment =     2.728575
atom   12   Tr[ns(na)] (up, down, total) =   4.97787  2.25183  7.22970
   spin  1
    eigenvalues: 
  0.994  0.994  0.995  0.997  0.997
    eigenvectors:
  0.000  0.001  0.000  0.000  0.999
  0.982  0.016  0.001  0.000  0.000
  0.015  0.982  0.001  0.001  0.001
  0.001  0.001  0.001  0.997  0.000
  0.002  0.001  0.997  0.001  0.000
    occupations:
  0.997 -0.000 -0.000  0.000  0.000
 -0.000  0.994 -0.000  0.000  0.000
 -0.000 -0.000  0.994  0.000  0.000
  0.000  0.000  0.000  0.997 -0.000
  0.000  0.000  0.000 -0.000  0.995
   spin  2
    eigenvalues: 
  0.353  0.386  0.493  0.497  0.522
    eigenvectors:
  0.999  0.001  0.000  0.000  0.000
  0.000  0.000  0.726  0.246  0.028
  0.000  0.000  0.245  0.752  0.002
  0.001  0.999  0.000  0.000  0.000
  0.000  0.000  0.029  0.002  0.970
    occupations:
  0.353 -0.003 -0.001 -0.001 -0.002
 -0.003  0.495 -0.001  0.000 -0.005
 -0.001 -0.001  0.496 -0.000 -0.002
 -0.001  0.000 -0.000  0.386  0.000
 -0.002 -0.005 -0.002  0.000  0.522
atomic mag. moment =     2.726044
atom   13   Tr[ns(na)] (up, down, total) =   4.97957  2.06519  7.04476
   spin  1
    eigenvalues: 
  0.995  0.996  0.996  0.996  0.997
    eigenvectors:
  0.143  0.022  0.009  0.017  0.810
  0.541  0.025  0.331  0.042  0.060
  0.242  0.029  0.527  0.078  0.123
  0.001  0.002  0.129  0.863  0.005
  0.073  0.922  0.004  0.000  0.001
    occupations:
  0.996 -0.000 -0.000 -0.000 -0.000
 -0.000  0.996 -0.000 -0.000 -0.000
 -0.000 -0.000  0.996  0.000 -0.000
 -0.000 -0.000  0.000  0.996 -0.000
 -0.000 -0.000 -0.000 -0.000  0.996
   spin  2
    eigenvalues: 
  0.332  0.386  0.433  0.438  0.476
    eigenvectors:
  0.995  0.002  0.003  0.000  0.000
  0.000  0.000  0.183  0.254  0.564
  0.003  0.001  0.667  0.018  0.310
  0.002  0.998  0.001  0.000  0.000
  0.000  0.000  0.147  0.728  0.125
    occupations:
  0.332 -0.001 -0.006  0.002  0.000
 -0.001  0.458 -0.018 -0.000  0.010
 -0.006 -0.018  0.446 -0.001 -0.009
  0.002 -0.000 -0.001  0.386 -0.000
  0.000  0.010 -0.009 -0.000  0.442
atomic mag. moment =     2.914375
atom   14   Tr[ns(na)] (up, down, total) =   4.98134  2.24325  7.22460
   spin  1
    eigenvalues: 
  0.996  0.996  0.996  0.997  0.997
    eigenvectors:
  0.001  0.003  0.001  0.124  0.870
  0.840  0.044  0.117  0.000  0.000
  0.104  0.002  0.801  0.072  0.021
  0.006  0.026  0.081  0.779  0.108
  0.049  0.926  0.000  0.024  0.000
    occupations:
  0.997 -0.000 -0.000 -0.000  0.000
 -0.000  0.996 -0.000  0.000  0.000
 -0.000 -0.000  0.996  0.000  0.000
 -0.000  0.000  0.000  0.997  0.000
  0.000  0.000  0.000  0.000  0.996
   spin  2
    eigenvalues: 
  0.389  0.398  0.469  0.490  0.497
    eigenvectors:
  0.018  0.971  0.006  0.000  0.005
  0.000  0.004  0.032  0.504  0.461
  0.007  0.002  0.000  0.475  0.517
  0.975  0.018  0.001  0.004  0.002
  0.000  0.005  0.962  0.017  0.016
    occupations:
  0.399  0.005  0.005  0.001 -0.004
  0.005  0.492  0.004  0.002  0.005
  0.005  0.004  0.493 -0.008  0.001
  0.001  0.002 -0.008  0.390 -0.001
 -0.004  0.005  0.001 -0.001  0.470
atomic mag. moment =     2.738088
atom   15   Tr[ns(na)] (up, down, total) =   4.98109  2.13555  7.11664
   spin  1
    eigenvalues: 
  0.996  0.996  0.996  0.996  0.998
    eigenvectors:
  0.012  0.000  0.005  0.066  0.917
  0.822  0.137  0.029  0.003  0.009
  0.123  0.842  0.024  0.011  0.000
  0.000  0.018  0.063  0.845  0.073
  0.043  0.002  0.879  0.075  0.000
    occupations:
  0.997  0.000  0.000  0.000  0.000
  0.000  0.996 -0.000  0.000 -0.000
  0.000 -0.000  0.996 -0.000 -0.000
  0.000  0.000 -0.000  0.996 -0.000
  0.000 -0.000 -0.000 -0.000  0.996
   spin  2
    eigenvalues: 
  0.375  0.385  0.433  0.460  0.483
    eigenvectors:
  0.912  0.061  0.022  0.001  0.004
  0.009  0.000  0.210  0.351  0.430
  0.006  0.000  0.009  0.599  0.387
  0.063  0.936  0.000  0.000  0.000
  0.011  0.002  0.758  0.050  0.179
    occupations:
  0.377  0.007  0.007 -0.002 -0.005
  0.007  0.463  0.008  0.001  0.018
  0.007  0.008  0.468  0.002  0.009
 -0.002  0.001  0.002  0.385  0.001
 -0.005  0.018  0.009  0.001  0.442
atomic mag. moment =     2.845539
atom   16   Tr[ns(na)] (up, down, total) =   4.97963  2.31602  7.29565
   spin  1
    eigenvalues: 
  0.995  0.995  0.996  0.996  0.997
    eigenvectors:
  0.000  0.003  0.010  0.006  0.982
  0.954  0.037  0.007  0.002  0.000
  0.043  0.927  0.025  0.004  0.001
  0.000  0.000  0.158  0.841  0.001
  0.003  0.033  0.801  0.147  0.016
    occupations:
  0.997  0.000 -0.000  0.000 -0.000
  0.000  0.995 -0.000 -0.000  0.000
 -0.000 -0.000  0.995  0.000 -0.000
  0.000 -0.000  0.000  0.996 -0.000
 -0.000  0.000 -0.000 -0.000  0.996
   spin  2
    eigenvalues: 
  0.403  0.421  0.467  0.508  0.518
    eigenvectors:
  0.005  0.985  0.009  0.000  0.001
  0.000  0.000  0.006  0.229  0.765
  0.001  0.000  0.001  0.770  0.228
  0.993  0.006  0.000  0.001  0.001
  0.001  0.009  0.984  0.000  0.006
    occupations:
  0.421 -0.002 -0.002 -0.001 -0.004
 -0.002  0.515  0.004 -0.001  0.004
 -0.002  0.004  0.510 -0.004  0.001
 -0.001 -0.001 -0.004  0.403 -0.001
 -0.004  0.004  0.001 -0.001  0.467
atomic mag. moment =     2.663609
atom   17   Tr[ns(na)] (up, down, total) =   4.96359  1.14955  6.11314
   spin  1
    eigenvalues: 
  0.983  0.993  0.995  0.996  0.997
    eigenvectors:
  0.841  0.020  0.002  0.132  0.005
  0.124  0.363  0.141  0.372  0.000
  0.008  0.066  0.849  0.068  0.009
  0.004  0.011  0.008  0.006  0.972
  0.023  0.540  0.000  0.423  0.014
    occupations:
  0.985  0.004  0.001 -0.001  0.002
  0.004  0.993 -0.001  0.000  0.001
  0.001 -0.001  0.995  0.000  0.000
 -0.001  0.000  0.000  0.997 -0.000
  0.002  0.001  0.000 -0.000  0.994
   spin  2
    eigenvalues: 
  0.183  0.192  0.236  0.251  0.287
    eigenvectors:
  0.021  0.074  0.032  0.001  0.872
  0.515  0.204  0.031  0.181  0.069
  0.259  0.601  0.117  0.017  0.006
  0.172  0.006  0.776  0.032  0.014
  0.033  0.115  0.043  0.769  0.039
    occupations:
  0.276 -0.024 -0.009  0.003 -0.014
 -0.024  0.206  0.006 -0.017 -0.017
 -0.009  0.006  0.196  0.013 -0.008
  0.003 -0.017  0.013  0.228 -0.002
 -0.014 -0.017 -0.008 -0.002  0.243
atomic mag. moment =     3.814043
atom   18   Tr[ns(na)] (up, down, total) =   4.96733  1.07344  6.04077
   spin  1
    eigenvalues: 
  0.985  0.994  0.995  0.996  0.997
    eigenvectors:
  0.172  0.668  0.072  0.002  0.085
  0.728  0.233  0.003  0.004  0.032
  0.022  0.087  0.859  0.001  0.032
  0.071  0.008  0.057  0.293  0.572
  0.008  0.004  0.010  0.699  0.279
    occupations:
  0.993  0.003 -0.001 -0.002  0.001
  0.003  0.988  0.001  0.002 -0.001
 -0.001  0.001  0.995 -0.000 -0.000
 -0.002  0.002 -0.000  0.996 -0.000
  0.001 -0.001 -0.000 -0.000  0.996
   spin  2
    eigenvalues: 
  0.177  0.193  0.200  0.225  0.278
    eigenvectors:
  0.007  0.641  0.003  0.019  0.330
  0.117  0.265  0.108  0.016  0.494
  0.795  0.068  0.005  0.109  0.022
  0.061  0.012  0.107  0.701  0.120
  0.020  0.015  0.776  0.155  0.034
    occupations:
  0.222 -0.035  0.008  0.013 -0.011
 -0.035  0.235 -0.015 -0.018  0.010
  0.008 -0.015  0.186 -0.008 -0.008
  0.013 -0.018 -0.008  0.225  0.003
 -0.011  0.010 -0.008  0.003  0.206
atomic mag. moment =     3.893894
atom   19   Tr[ns(na)] (up, down, total) =   4.96088  1.37097  6.33185
   spin  1
    eigenvalues: 
  0.981  0.993  0.995  0.996  0.997
    eigenvectors:
  0.047  0.578  0.314  0.018  0.043
  0.404  0.032  0.043  0.510  0.012
  0.395  0.053  0.452  0.082  0.017
  0.005  0.144  0.019  0.003  0.829
  0.149  0.193  0.172  0.387  0.099
    occupations:
  0.993 -0.002  0.002  0.001  0.001
 -0.002  0.990  0.006 -0.001  0.004
  0.002  0.006  0.989  0.000 -0.003
  0.001 -0.001  0.000  0.996  0.001
  0.001  0.004 -0.003  0.001  0.993
   spin  2
    eigenvalues: 
  0.197  0.224  0.257  0.286  0.407
    eigenvectors:
  0.000  0.502  0.177  0.097  0.223
  0.600  0.082  0.000  0.042  0.275
  0.303  0.298  0.018  0.038  0.343
  0.049  0.004  0.256  0.691  0.000
  0.048  0.114  0.548  0.131  0.159
    occupations:
  0.277  0.042 -0.057 -0.008 -0.017
  0.042  0.261 -0.065  0.017 -0.047
 -0.057 -0.065  0.282  0.010  0.032
 -0.008  0.017  0.010  0.274 -0.006
 -0.017 -0.047  0.032 -0.006  0.278
atomic mag. moment =     3.589907
atom   20   Tr[ns(na)] (up, down, total) =   4.96930  1.05634  6.02563
   spin  1
    eigenvalues: 
  0.987  0.994  0.994  0.997  0.997
    eigenvectors:
  0.165  0.316  0.375  0.014  0.131
  0.730  0.216  0.042  0.000  0.012
  0.038  0.447  0.511  0.003  0.001
  0.021  0.007  0.009  0.496  0.467
  0.045  0.014  0.063  0.488  0.390
    occupations:
  0.993 -0.002 -0.001 -0.001 -0.001
 -0.002  0.989 -0.001 -0.001 -0.002
 -0.001 -0.001  0.994 -0.000 -0.000
 -0.001 -0.001 -0.000  0.997 -0.000
 -0.001 -0.002 -0.000 -0.000  0.996
   spin  2
    eigenvalues: 
  0.175  0.184  0.199  0.225  0.273
    eigenvectors:
  0.160  0.409  0.040  0.052  0.340
  0.028  0.356  0.152  0.000  0.464
  0.598  0.069  0.136  0.150  0.047
  0.078  0.064  0.000  0.788  0.069
  0.136  0.102  0.672  0.010  0.080
    occupations:
  0.216  0.034  0.017  0.006  0.019
  0.034  0.228  0.016  0.017  0.013
  0.017  0.016  0.191 -0.011 -0.000
  0.006  0.017 -0.011  0.222  0.002
  0.019  0.013 -0.000  0.002  0.200
atomic mag. moment =     3.912962
N of occupied +U levels = 135.0532638
 --- exit write_ns ---

     negative rho (up, down):  0.000E+00 0.507E-03
 --- in v_hubbard ---
Hubbard energy    0.0000
 -------

     total cpu time spent up to now is      154.4 secs

     total energy              =   -6681.69365454 Ry
     Harris-Foulkes estimate   =   -6671.94644996 Ry
     estimated scf accuracy    <      28.38146358 Ry

     total magnetization       =    67.90 Bohr mag/cell
     absolute magnetization    =    71.44 Bohr mag/cell

     iteration #  2     ecut=    95.00 Ry     beta=0.50
     Davidson diagonalization with overlap
     ethr =  8.45E-03,  avg # of iterations =  1.0
 --- enter write_ns ---
 LDA+U parameters:
U( 1)     =  0.00000000
alpha( 1) =  0.00000000
atom    1   Tr[ns(na)] (up, down, total) =   4.97931  1.61301  6.59233
   spin  1
    eigenvalues: 
  0.995  0.996  0.996  0.996  0.997
    eigenvectors:
  0.986  0.013  0.000  0.001  0.000
  0.006  0.333  0.661  0.000  0.000
  0.007  0.654  0.339  0.000  0.000
  0.000  0.000  0.000  0.003  0.997
  0.001  0.000  0.000  0.996  0.003
    occupations:
  0.995  0.000 -0.000  0.000 -0.000
  0.000  0.996  0.000  0.000 -0.000
 -0.000  0.000  0.996 -0.000 -0.000
  0.000  0.000 -0.000  0.997  0.000
 -0.000 -0.000 -0.000  0.000  0.996
   spin  2
    eigenvalues: 
  0.280  0.281  0.315  0.338  0.399
    eigenvectors:
  0.000  0.000  1.000  0.000  0.000
  0.438  0.562  0.000  0.000  0.000
  0.562  0.438  0.000  0.000  0.000
  0.000  0.000  0.000  1.000  0.000
  0.000  0.000  0.000  0.000  1.000
    occupations:
  0.315  0.000 -0.000  0.000 -0.001
  0.000  0.281  0.000 -0.001 -0.000
 -0.000  0.000  0.281  0.000 -0.001
  0.000 -0.001  0.000  0.338  0.000
 -0.001 -0.000 -0.001  0.000  0.399
atomic mag. moment =     3.366297
atom    2   Tr[ns(na)] (up, down, total) =   4.97869  1.62798  6.60668
   spin  1
    eigenvalues: 
  0.995  0.995  0.996  0.996  0.997
    eigenvectors:
  0.948  0.048  0.004  0.000  0.000
  0.051  0.929  0.020  0.000  0.000
  0.001  0.023  0.976  0.001  0.000
  0.000  0.000  0.000  0.004  0.995
  0.000  0.000  0.001  0.995  0.004
    occupations:
  0.995 -0.000  0.000 -0.000  0.000
 -0.000  0.995 -0.000 -0.000  0.000
  0.000 -0.000  0.996  0.000 -0.000
 -0.000 -0.000  0.000  0.997  0.000
  0.000  0.000 -0.000  0.000  0.996
   spin  2
    eigenvalues: 
  0.284  0.284  0.317  0.340  0.404
    eigenvectors:
  0.000  0.000  0.999  0.000  0.000
  0.037  0.963  0.000  0.000  0.000
  0.963  0.037  0.000  0.000  0.000
  0.000  0.000  0.000  0.999  0.000
  0.000  0.000  0.000  0.000  1.000
    occupations:
  0.317  0.000  0.000 -0.001  0.001
  0.000  0.284  0.000  0.001  0.000
  0.000  0.000  0.284 -0.000 -0.000
 -0.001  0.001 -0.000  0.340  0.000
  0.001  0.000 -0.000  0.000  0.404
atomic mag. moment =     3.350710
atom    3   Tr[ns(na)] (up, down, total) =   4.97888  1.61840  6.59729
   spin  1
    eigenvalues: 
  0.995  0.996  0.996  0.996  0.997
    eigenvectors:
  0.994  0.006  0.000  0.000  0.000
  0.002  0.065  0.933  0.001  0.000
  0.005  0.929  0.066  0.000  0.001
  0.000  0.000  0.000  0.001  0.999
  0.000  0.000  0.001  0.998  0.001
    occupations:
  0.995 -0.000 -0.000  0.000  0.000
 -0.000  0.996 -0.000 -0.000 -0.000
 -0.000 -0.000  0.996  0.000  0.000
  0.000 -0.000  0.000  0.997 -0.000
  0.000 -0.000  0.000 -0.000  0.996
   spin  2
    eigenvalues: 
  0.281  0.283  0.315  0.339  0.400
    eigenvectors:
  0.000  0.000  1.000  0.000  0.000
  0.586  0.414  0.000  0.000  0.000
  0.414  0.586  0.000  0.000  0.000
  0.000  0.000  0.000  1.000  0.000
  0.000  0.000  0.000  0.000  1.000
    occupations:
  0.315 -0.001  0.000 -0.000  0.000
 -0.001  0.282  0.001 -0.000 -0.000
  0.000  0.001  0.282 -0.000  0.000
 -0.000 -0.000 -0.000  0.339  0.000
  0.000 -0.000  0.000  0.000  0.400
atomic mag. moment =     3.360478
atom    4   Tr[ns(na)] (up, down, total) =   4.97849  1.63151  6.61000
   spin  1
    eigenvalues: 
  0.995  0.995  0.996  0.996  0.997
    eigenvectors:
  0.946  0.050  0.003  0.001  0.000
  0.049  0.949  0.002  0.000  0.000
  0.004  0.001  0.994  0.001  0.000
  0.000  0.000  0.000  0.002  0.998
  0.001  0.000  0.001  0.996  0.002
    occupations:
  0.995  0.000  0.000 -0.000 -0.000
  0.000  0.995 -0.000  0.000 -0.000
  0.000 -0.000  0.996  0.000  0.000
 -0.000  0.000  0.000  0.997 -0.000
 -0.000 -0.000  0.000 -0.000  0.996
   spin  2
    eigenvalues: 
  0.284  0.284  0.318  0.341  0.405
    eigenvectors:
  0.000  0.000  1.000  0.000  0.000
  0.254  0.746  0.000  0.000  0.000
  0.746  0.254  0.000  0.000  0.000
  0.000  0.000  0.000  1.000  0.000
  0.000  0.000  0.000  0.000  1.000
    occupations:
  0.318  0.000  0.000 -0.000 -0.001
  0.000  0.284  0.000 -0.000  0.000
  0.000  0.000  0.284 -0.000  0.001
 -0.000 -0.000 -0.000  0.341 -0.000
 -0.001  0.000  0.001 -0.000  0.405
atomic mag. moment =     3.346989
atom    5   Tr[ns(na)] (up, down, total) =   4.95221  2.12929  7.08150
   spin  1
    eigenvalues: 
  0.989  0.990  0.990  0.991  0.993
    eigenvectors:
  0.001  0.001  0.002  0.004  0.993
  0.844  0.150  0.004  0.001  0.000
  0.138  0.664  0.195  0.003  0.000
  0.014  0.185  0.797  0.001  0.003
  0.002  0.000  0.002  0.992  0.004
    occupations:
  0.993  0.000 -0.000 -0.000 -0.000
  0.000  0.989  0.000 -0.000  0.000
 -0.000  0.000  0.990 -0.000 -0.000
 -0.000 -0.000 -0.000  0.990  0.000
 -0.000  0.000 -0.000  0.000  0.991
   spin  2
    eigenvalues: 
  0.349  0.365  0.471  0.472  0.472
    eigenvectors:
  0.000  1.000  0.000  0.000  0.000
  0.000  0.000  0.116  0.208  0.676
  0.000  0.000  0.217  0.708  0.075
  1.000  0.000  0.000  0.000  0.000
  0.000  0.000  0.667  0.084  0.249
    occupations:
  0.365 -0.000 -0.001  0.000  0.000
 -0.000  0.472  0.000 -0.000 -0.000
 -0.001  0.000  0.472  0.000  0.000
  0.000 -0.000  0.000  0.349  0.000
  0.000 -0.000  0.000  0.000  0.471
atomic mag. moment =     2.822921
atom    6   Tr[ns(na)] (up, down, total) =   4.95352  2.13020  7.08372
   spin  1
    eigenvalues: 
  0.990  0.990  0.990  0.991  0.993
    eigenvectors:
  0.002  0.033  0.002  0.003  0.961
  0.980  0.008  0.011  0.001  0.000
  0.004  0.163  0.791  0.042  0.000
  0.014  0.789  0.162  0.000  0.035
  0.000  0.007  0.034  0.954  0.004
    occupations:
  0.993 -0.000 -0.000  0.000  0.000
 -0.000  0.990  0.000  0.000  0.000
 -0.000  0.000  0.990  0.000  0.000
  0.000  0.000  0.000  0.990  0.000
  0.000  0.000  0.000  0.000  0.991
   spin  2
    eigenvalues: 
  0.350  0.369  0.469  0.470  0.472
    eigenvectors:
  0.000  1.000  0.000  0.000  0.000
  0.000  0.000  0.274  0.287  0.438
  0.000  0.000  0.679  0.266  0.055
  1.000  0.000  0.000  0.000  0.000
  0.000  0.000  0.047  0.447  0.506
    occupations:
  0.369 -0.000  0.000  0.000 -0.000
 -0.000  0.471  0.001  0.000 -0.001
  0.000  0.001  0.470  0.000 -0.000
  0.000  0.000  0.000  0.350  0.000
 -0.000 -0.001 -0.000  0.000  0.471
atomic mag. moment =     2.823312
atom    7   Tr[ns(na)] (up, down, total) =   4.95366  2.13155  7.08521
   spin  1
    eigenvalues: 
  0.990  0.990  0.990  0.991  0.993
    eigenvectors:
  0.019  0.026  0.006  0.002  0.946
  0.017  0.129  0.692  0.161  0.001
  0.352  0.578  0.066  0.001  0.004
  0.607  0.252  0.078  0.018  0.045
  0.006  0.015  0.157  0.817  0.004
    occupations:
  0.992 -0.000  0.000 -0.001  0.000
 -0.000  0.990  0.000 -0.000 -0.000
  0.000  0.000  0.990 -0.000  0.000
 -0.001 -0.000 -0.000  0.990  0.000
  0.000 -0.000  0.000  0.000  0.991
   spin  2
    eigenvalues: 
  0.349  0.366  0.471  0.472  0.473
    eigenvectors:
  0.000  1.000  0.000  0.000  0.000
  0.000  0.000  0.018  0.939  0.042
  0.000  0.000  0.024  0.051  0.924
  1.000  0.000  0.000  0.000  0.000
  0.000  0.000  0.957  0.010  0.033
    occupations:
  0.366 -0.001  0.000 -0.000 -0.000
 -0.001  0.472  0.000 -0.000 -0.000
  0.000  0.000  0.473 -0.000 -0.000
 -0.000 -0.000 -0.000  0.349  0.000
 -0.000 -0.000 -0.000  0.000  0.471
atomic mag. moment =     2.822107
atom    8   Tr[ns(na)] (up, down, total) =   4.95289  2.13100  7.08389
   spin  1
    eigenvalues: 
  0.990  0.990  0.990  0.990  0.993
    eigenvectors:
  0.001  0.001  0.003  0.001  0.994
  0.008  0.073  0.865  0.052  0.002
  0.060  0.875  0.063  0.000  0.001
  0.931  0.044  0.023  0.000  0.002
  0.000  0.007  0.045  0.947  0.000
    occupations:
  0.993  0.000 -0.000 -0.000 -0.000
  0.000  0.990 -0.000 -0.000 -0.000
 -0.000 -0.000  0.990  0.000 -0.000
 -0.000 -0.000  0.000  0.990 -0.000
 -0.000 -0.000 -0.000 -0.000  0.990
   spin  2
    eigenvalues: 
  0.349  0.368  0.470  0.470  0.474
    eigenvectors:
  0.000  1.000  0.000  0.000  0.000
  0.000  0.000  0.474  0.303  0.223
  0.000  0.000  0.448  0.538  0.015
  1.000  0.000  0.000  0.000  0.000
  0.000  0.000  0.078  0.159  0.762
    occupations:
  0.368  0.000 -0.001 -0.000  0.001
  0.000  0.471 -0.001 -0.000 -0.002
 -0.001 -0.001  0.470 -0.000  0.000
 -0.000 -0.000 -0.000  0.349  0.000
  0.001 -0.002  0.000  0.000  0.473
atomic mag. moment =     2.821889
atom    9   Tr[ns(na)] (up, down, total) =   4.95344  2.15718  7.11062
   spin  1
    eigenvalues: 
  0.989  0.989  0.990  0.991  0.994
    eigenvectors:
  0.007  0.002  0.002  0.001  0.988
  0.529  0.341  0.029  0.090  0.011
  0.305  0.491  0.160  0.043  0.001
  0.000  0.152  0.039  0.809  0.000
  0.159  0.014  0.770  0.056  0.000
    occupations:
  0.994  0.001  0.000 -0.000 -0.000
  0.001  0.989 -0.000  0.000 -0.000
  0.000 -0.000  0.989 -0.000 -0.000
 -0.000  0.000 -0.000  0.991 -0.000
 -0.000 -0.000 -0.000 -0.000  0.990
   spin  2
    eigenvalues: 
  0.340  0.384  0.470  0.481  0.482
    eigenvectors:
  1.000  0.000  0.000  0.000  0.000
  0.000  0.000  0.398  0.240  0.362
  0.000  0.000  0.408  0.013  0.579
  0.000  1.000  0.000  0.000  0.000
  0.000  0.000  0.194  0.747  0.059
    occupations:
  0.340  0.001 -0.000  0.000 -0.002
  0.001  0.477  0.005  0.001  0.003
 -0.000  0.005  0.477  0.001 -0.003
  0.000  0.001  0.001  0.384  0.000
 -0.002  0.003 -0.003  0.000  0.479
atomic mag. moment =     2.796250
atom   10   Tr[ns(na)] (up, down, total) =   4.95357  2.15408  7.10765
   spin  1
    eigenvalues: 
  0.988  0.990  0.990  0.991  0.994
    eigenvectors:
  0.005  0.001  0.001  0.000  0.993
  0.405  0.376  0.124  0.089  0.006
  0.378  0.429  0.088  0.104  0.001
  0.002  0.194  0.007  0.798  0.000
  0.211  0.000  0.780  0.009  0.000
    occupations:
  0.994  0.000 -0.000 -0.000 -0.000
  0.000  0.989  0.001  0.000  0.001
 -0.000  0.001  0.989  0.000 -0.001
 -0.000  0.000  0.000  0.991 -0.000
 -0.000  0.001 -0.001 -0.000  0.990
   spin  2
    eigenvalues: 
  0.340  0.385  0.473  0.475  0.482
    eigenvectors:
  0.999  0.000  0.000  0.000  0.000
  0.000  0.000  0.610  0.098  0.291
  0.000  0.000  0.085  0.898  0.017
  0.000  0.999  0.000  0.000  0.000
  0.000  0.000  0.305  0.003  0.692
    occupations:
  0.340  0.002 -0.001 -0.001  0.001
  0.002  0.476  0.000  0.001 -0.004
 -0.001  0.000  0.475  0.002 -0.001
 -0.001  0.001  0.002  0.385 -0.000
  0.001 -0.004 -0.001 -0.000  0.479
atomic mag. moment =     2.799495
atom   11   Tr[ns(na)] (up, down, total) =   4.95386  2.14724  7.10110
   spin  1
    eigenvalues: 
  0.989  0.990  0.990  0.991  0.994
    eigenvectors:
  0.004  0.004  0.016  0.001  0.976
  0.000  0.625  0.198  0.163  0.013
  0.490  0.067  0.385  0.047  0.010
  0.031  0.175  0.004  0.789  0.000
  0.475  0.129  0.396  0.000  0.000
    occupations:
  0.993 -0.000  0.000 -0.000  0.000
 -0.000  0.990 -0.000 -0.001 -0.000
  0.000 -0.000  0.990 -0.000  0.000
 -0.000 -0.001 -0.000  0.991  0.000
  0.000 -0.000  0.000  0.000  0.990
   spin  2
    eigenvalues: 
  0.343  0.385  0.469  0.471  0.479
    eigenvectors:
  0.999  0.001  0.000  0.000  0.000
  0.000  0.000  0.771  0.003  0.226
  0.000  0.000  0.005  0.936  0.058
  0.001  0.999  0.000  0.000  0.000
  0.000  0.000  0.223  0.061  0.717
    occupations:
  0.343 -0.002  0.002  0.001  0.000
 -0.002  0.471 -0.001 -0.001  0.004
  0.002 -0.001  0.472 -0.002 -0.002
  0.001 -0.001 -0.002  0.385 -0.000
  0.000  0.004 -0.002 -0.000  0.476
atomic mag. moment =     2.806619
atom   12   Tr[ns(na)] (up, down, total) =   4.95353  2.16826  7.12179
   spin  1
    eigenvalues: 
  0.989  0.990  0.990  0.991  0.994
    eigenvectors:
  0.005  0.000  0.004  0.000  0.991
  0.202  0.496  0.191  0.108  0.003
  0.625  0.286  0.039  0.045  0.006
  0.001  0.164  0.000  0.836  0.000
  0.167  0.055  0.766  0.012  0.001
    occupations:
  0.994 -0.000 -0.000 -0.000 -0.000
 -0.000  0.990 -0.000 -0.000  0.000
 -0.000 -0.000  0.989  0.000  0.000
 -0.000 -0.000  0.000  0.991  0.000
 -0.000  0.000  0.000  0.000  0.990
   spin  2
    eigenvalues: 
  0.342  0.386  0.477  0.479  0.484
    eigenvectors:
  0.999  0.000  0.000  0.000  0.000
  0.001  0.000  0.192  0.755  0.052
  0.000  0.000  0.806  0.186  0.007
  0.000  1.000  0.000  0.000  0.000
  0.000  0.000  0.000  0.058  0.941
    occupations:
  0.342 -0.003 -0.001 -0.000 -0.003
 -0.003  0.479 -0.001  0.000 -0.001
 -0.001 -0.001  0.477  0.002  0.000
 -0.000  0.000  0.002  0.386  0.000
 -0.003 -0.001  0.000  0.000  0.484
atomic mag. moment =     2.785266
atom   13   Tr[ns(na)] (up, down, total) =   4.96099  2.08813  7.04911
   spin  1
    eigenvalues: 
  0.991  0.992  0.992  0.992  0.994
    eigenvectors:
  0.055  0.116  0.000  0.125  0.704
  0.000  0.747  0.001  0.231  0.022
  0.252  0.072  0.005  0.403  0.268
  0.678  0.065  0.010  0.241  0.006
  0.015  0.001  0.984  0.000  0.000
    occupations:
  0.993 -0.000 -0.001  0.000  0.000
 -0.000  0.992 -0.000 -0.000 -0.000
 -0.001 -0.000  0.992  0.001  0.000
  0.000 -0.000  0.001  0.991 -0.000
  0.000 -0.000  0.000 -0.000  0.992
   spin  2
    eigenvalues: 
  0.321  0.360  0.451  0.456  0.500
    eigenvectors:
  0.997  0.001  0.000  0.002  0.000
  0.001  0.001  0.146  0.365  0.487
  0.000  0.000  0.583  0.048  0.369
  0.001  0.998  0.000  0.000  0.000
  0.001  0.000  0.271  0.585  0.143
    occupations:
  0.321  0.005 -0.000  0.001 -0.005
  0.005  0.477 -0.020 -0.003  0.011
 -0.000 -0.020  0.469  0.001 -0.012
  0.001 -0.003  0.001  0.360  0.000
 -0.005  0.011 -0.012  0.000  0.461
atomic mag. moment =     2.872862
atom   14   Tr[ns(na)] (up, down, total) =   4.95778  2.09760  7.05539
   spin  1
    eigenvalues: 
  0.990  0.990  0.991  0.992  0.994
    eigenvectors:
  0.001  0.102  0.003  0.048  0.845
  0.920  0.016  0.064  0.000  0.000
  0.000  0.067  0.051  0.868  0.014
  0.001  0.726  0.070  0.064  0.139
  0.078  0.089  0.813  0.020  0.001
    occupations:
  0.994  0.000 -0.000 -0.001  0.000
  0.000  0.990  0.000 -0.000 -0.000
 -0.000  0.000  0.992  0.001  0.000
 -0.001 -0.000  0.001  0.991  0.000
  0.000 -0.000  0.000  0.000  0.991
   spin  2
    eigenvalues: 
  0.344  0.357  0.455  0.466  0.475
    eigenvectors:
  0.087  0.903  0.004  0.005  0.001
  0.000  0.002  0.214  0.031  0.753
  0.002  0.003  0.003  0.943  0.048
  0.910  0.088  0.001  0.000  0.001
  0.001  0.004  0.778  0.021  0.197
    occupations:
  0.357  0.005  0.008  0.004 -0.005
  0.005  0.470  0.002 -0.001  0.008
  0.008  0.002  0.466 -0.004  0.001
  0.004 -0.001 -0.004  0.345 -0.005
 -0.005  0.008  0.001 -0.005  0.459
atomic mag. moment =     2.860181
atom   15   Tr[ns(na)] (up, down, total) =   4.96052  2.10000  7.06052
   spin  1
    eigenvalues: 
  0.991  0.991  0.992  0.992  0.995
    eigenvectors:
  0.054  0.000  0.008  0.096  0.842
  0.151  0.074  0.000  0.740  0.035
  0.168  0.816  0.000  0.012  0.003
  0.426  0.084  0.289  0.094  0.107
  0.199  0.027  0.703  0.058  0.014
    occupations:
  0.994  0.000 -0.000  0.001  0.000
  0.000  0.992  0.000  0.001  0.000
 -0.000  0.000  0.991  0.000  0.000
  0.001  0.001  0.000  0.992 -0.000
  0.000  0.000  0.000 -0.000  0.992
   spin  2
    eigenvalues: 
  0.352  0.360  0.440  0.463  0.485
    eigenvectors:
  0.092  0.901  0.007  0.000  0.001
  0.001  0.002  0.297  0.458  0.242
  0.000  0.001  0.013  0.413  0.573
  0.906  0.090  0.002  0.001  0.001
  0.001  0.005  0.682  0.128  0.184
    occupations:
  0.360  0.005  0.004 -0.003 -0.004
  0.005  0.461  0.007  0.003  0.015
  0.004  0.007  0.475  0.000  0.010
 -0.003  0.003  0.000  0.353  0.006
 -0.004  0.015  0.010  0.006  0.451
atomic mag. moment =     2.860522
atom   16   Tr[ns(na)] (up, down, total) =   4.94722  2.10079  7.04801
   spin  1
    eigenvalues: 
  0.987  0.989  0.989  0.990  0.992
    eigenvectors:
  0.011  0.000  0.020  0.000  0.969
  0.166  0.773  0.004  0.053  0.004
  0.119  0.071  0.450  0.357  0.003
  0.025  0.028  0.401  0.540  0.006
  0.678  0.128  0.127  0.050  0.018
    occupations:
  0.992  0.000  0.000  0.000 -0.001
  0.000  0.989  0.000  0.000  0.001
  0.000  0.000  0.989 -0.000 -0.001
  0.000  0.000 -0.000  0.990 -0.000
 -0.001  0.001 -0.001 -0.000  0.988
   spin  2
    eigenvalues: 
  0.355  0.367  0.424  0.465  0.489
    eigenvectors:
  0.000  0.990  0.010  0.000  0.000
  0.000  0.000  0.027  0.356  0.616
  0.000  0.000  0.015  0.605  0.380
  0.999  0.001  0.000  0.000  0.000
  0.000  0.010  0.948  0.038  0.003
    occupations:
  0.367  0.000  0.001 -0.000 -0.006
  0.000  0.479  0.012  0.000  0.008
  0.001  0.012  0.474 -0.001 -0.004
 -0.000  0.000 -0.001  0.355 -0.001
 -0.006  0.008 -0.004 -0.001  0.425
atomic mag. moment =     2.846428
atom   17   Tr[ns(na)] (up, down, total) =   4.96529  1.69125  6.65654
   spin  1
    eigenvalues: 
  0.984  0.993  0.995  0.996  0.996
    eigenvectors:
  0.797  0.052  0.002  0.147  0.003
  0.168  0.381  0.137  0.306  0.008
  0.012  0.073  0.857  0.050  0.009
  0.006  0.022  0.003  0.000  0.968
  0.017  0.474  0.001  0.497  0.011
    occupations:
  0.986  0.004  0.001 -0.001  0.002
  0.004  0.993 -0.001  0.001  0.001
  0.001 -0.001  0.995  0.000  0.000
 -0.001  0.001  0.000  0.996 -0.000
  0.002  0.001  0.000 -0.000  0.995
   spin  2
    eigenvalues: 
  0.281  0.293  0.350  0.370  0.398
    eigenvectors:
  0.131  0.010  0.020  0.004  0.834
  0.342  0.470  0.028  0.040  0.121
  0.516  0.381  0.069  0.004  0.030
  0.001  0.115  0.862  0.007  0.015
  0.010  0.025  0.021  0.944  0.000
    occupations:
  0.380 -0.033 -0.022  0.004 -0.005
 -0.033  0.306 -0.002 -0.014 -0.014
 -0.022 -0.002  0.294  0.012  0.002
  0.004 -0.014  0.012  0.344 -0.001
 -0.005 -0.014  0.002 -0.001  0.366
atomic mag. moment =     3.274045
atom   18   Tr[ns(na)] (up, down, total) =   4.97083  1.67388  6.64471
   spin  1
    eigenvalues: 
  0.987  0.995  0.995  0.996  0.997
    eigenvectors:
  0.146  0.742  0.000  0.004  0.107
  0.721  0.211  0.015  0.014  0.038
  0.033  0.000  0.928  0.003  0.036
  0.092  0.030  0.050  0.354  0.473
  0.007  0.016  0.007  0.624  0.346
    occupations:
[...]
     0.0267   0.0199   0.0061   0.0035   0.0009   0.0006   0.0004   0.0001
     0.0001   0.0001   0.0001   0.0001   0.0000   0.0000   0.0000   0.0000
     0.0000   0.0000   0.0000   0.0000   0.0000   0.0000   0.0000   0.0000
     0.0000   0.0000   0.0000   0.0000   0.0000   0.0000   0.0000   0.0000
     0.0000   0.0000   0.0000   0.0000   0.0000   0.0000   0.0000   0.0000
     0.0000   0.0000   0.0000   0.0000   0.0000   0.0000   0.0000   0.0000
     0.0000   0.0000

     the Fermi energy is     5.1260 ev

!    total energy              =   -6686.50141890 Ry
     Harris-Foulkes estimate   =   -6686.50141891 Ry
     estimated scf accuracy    <          6.2E-09 Ry

     total all-electron energy =    -51287.890015 Ry

     The total energy is the sum of the following terms:

     one-electron contribution =  -25937.89317115 Ry
     hartree contribution      =   13033.63441061 Ry
     xc contribution           =    -715.21899733 Ry
     ewald contribution        =    8481.56380764 Ry
     Hubbard energy            =       0.00000000 Ry
     one-center paw contrib.   =   -1548.68485480 Ry
     smearing contrib. (-TS)   =       0.09738613 Ry

     total magnetization       =    50.83 Bohr mag/cell
     absolute magnetization    =    53.25 Bohr mag/cell

     convergence has been achieved in  28 iterations

     Forces acting on atoms (Ry/au):


     negative rho (up, down):  0.661E-04 0.125E-02
     atom    1 type  1   force =    -0.00040271   -0.00034214    0.00324070
     atom    2 type  1   force =    -0.00035461    0.00027350    0.00329363
     atom    3 type  1   force =     0.00031682   -0.00034026    0.00295089
     atom    4 type  1   force =     0.00017513    0.00025759    0.00336969
     atom    5 type  1   force =     0.00024090    0.00024335   -0.00885163
     atom    6 type  1   force =    -0.00015084   -0.00030067   -0.00906289
     atom    7 type  1   force =    -0.00003702   -0.00062535   -0.00512206
     atom    8 type  1   force =    -0.00074250    0.00114630   -0.00754287
     atom    9 type  1   force =    -0.00745623   -0.00112591    0.00595791
     atom   10 type  1   force =     0.00121248   -0.00291342    0.00418375
     atom   11 type  1   force =     0.00437639    0.00321196    0.00286271
     atom   12 type  1   force =     0.00288052    0.00058440    0.00505293
     atom   13 type  1   force =     0.00000358    0.00000552   -0.00004858
     atom   14 type  1   force =     0.00002691   -0.00000114   -0.00002927
     atom   15 type  1   force =     0.00000878    0.00002055    0.00001689
     atom   16 type  1   force =    -0.00004494   -0.00005222   -0.00002453
     atom   17 type  1   force =    -0.00001011   -0.00000625   -0.00005669
     atom   18 type  1   force =    -0.00001631    0.00002298   -0.00004575
     atom   19 type  1   force =     0.00007204    0.00000292   -0.00006482
     atom   20 type  1   force =     0.00004174    0.00000487   -0.00008831
     atom   21 type  2   force =    -0.00007101   -0.00001674   -0.00001456
     atom   22 type  3   force =    -0.00001733   -0.00003008   -0.00001064
     atom   23 type  3   force =    -0.00005168   -0.00001976    0.00003349
     The non-local contrib.  to forces
     atom    1 type  1   force =    -0.00011808    0.00204817   -0.39348074
     atom    2 type  1   force =     0.00128141   -0.00198320   -0.39189519
     atom    3 type  1   force =     0.00070193   -0.00076276   -0.39433206
     atom    4 type  1   force =    -0.00160388   -0.00085853   -0.39339166
     atom    5 type  1   force =     0.00169642   -0.00356802   -0.02742777
     atom    6 type  1   force =     0.00060351   -0.00039200   -0.03792150
     atom    7 type  1   force =    -0.00010853   -0.00009714   -0.03587860
     atom    8 type  1   force =     0.00071679   -0.00183935   -0.04264468
     atom    9 type  1   force =     0.01260915   -0.00018686    0.00030452
     atom   10 type  1   force =     0.00257545    0.00134349    0.00090455
     atom   11 type  1   force =    -0.01282795    0.00295637   -0.00339068
     atom   12 type  1   force =    -0.00138645    0.00112915   -0.00153006
     atom   13 type  1   force =     0.01026220    0.01478297    0.15942617
     atom   14 type  1   force =    -0.00791525   -0.00716775    0.03024452
     atom   15 type  1   force =    -0.01499026   -0.00167711    0.01156108
     atom   16 type  1   force =    -0.00497081    0.00826961   -0.02027687
     atom   17 type  1   force =     0.08211719    0.07656964    0.25101819
     atom   18 type  1   force =     0.10047155   -0.09301832    0.36590797
     atom   19 type  1   force =    -0.04379385   -0.05971994    0.23736009
     atom   20 type  1   force =    -0.04570648   -0.05744990    0.30650534
     atom   21 type  2   force =    -0.47450694    0.30206045    0.26918199
     atom   22 type  3   force =     0.10933453   -1.52995695   -1.07840750
     atom   23 type  3   force =     0.99901602    1.15181030   -1.53793591
     The ionic contribution  to forces
     atom    1 type  1   force =    -0.03613974    0.03698288 -264.53411215
     atom    2 type  1   force =    -0.02895404   -0.03673469 -264.53669772
     atom    3 type  1   force =     0.03588114    0.03850577 -264.54280381
     atom    4 type  1   force =     0.02865580   -0.03840832 -264.53916393
     atom    5 type  1   force =     0.00083654    0.03667832 -146.77294868
     atom    6 type  1   force =    -0.01748535   -0.03402358 -147.09724215
     atom    7 type  1   force =     0.01006551   -0.04186788 -146.37652482
     atom    8 type  1   force =     0.02287966    0.02760111 -146.83500861
     atom    9 type  1   force =    -0.87320190    0.69976208  -13.74835472
     atom   10 type  1   force =    -0.41134905   -0.57315525  -13.89893564
     atom   11 type  1   force =     0.84136479    0.69384834  -14.23148696
     atom   12 type  1   force =     0.23681884   -0.73951113  -13.83968605
     atom   13 type  1   force =    -0.97468572    0.88055517  115.31661208
     atom   14 type  1   force =     0.39216030    0.04018491  115.67795626
     atom   15 type  1   force =     1.09555186    0.29646079  121.40139359
     atom   16 type  1   force =    -0.28853344    0.06435559  117.47001789
     atom   17 type  1   force =    -7.96204371   -1.15509031  234.76143508
     atom   18 type  1   force =    -9.23505588    1.16238192  237.89795098
     atom   19 type  1   force =     7.94876582   -4.83493888  236.54710848
     atom   20 type  1   force =     8.38729870    3.08642428  238.96012002
     atom   21 type  2   force =     3.71556254   -0.37582084   66.79915455
     atom   22 type  3   force =     0.56364974    6.30146799  108.38951425
     atom   23 type  3   force =    -3.45204242   -5.53565824  107.73170208
     The local contribution  to forces
     atom    1 type  1   force =     0.03585317   -0.03941919  264.94375489
     atom    2 type  1   force =     0.02733113    0.03889775  264.94478777
     atom    3 type  1   force =    -0.03636097   -0.03811746  264.95295145
     atom    4 type  1   force =    -0.02694030    0.03952846  264.94881207
     atom    5 type  1   force =    -0.00202448   -0.03289490  146.79158191
     atom    6 type  1   force =     0.01668578    0.03410294  147.12631877
     atom    7 type  1   force =    -0.00997103    0.04132158  146.40764321
     atom    8 type  1   force =    -0.02429420   -0.02461769  146.87068581
     atom    9 type  1   force =     0.85319935   -0.70109947   13.75380760
     atom   10 type  1   force =     0.41028796    0.56870063   13.90238930
     atom   11 type  1   force =    -0.82389902   -0.69438450   14.23780591
     atom   12 type  1   force =    -0.23272694    0.73875487   13.84614404
     atom   13 type  1   force =     0.96457348   -0.89435091 -115.47994008
     atom   14 type  1   force =    -0.38431496   -0.03377395 -115.70942439
     atom   15 type  1   force =    -1.08048825   -0.29403941 -121.41356899
     atom   16 type  1   force =     0.29309751   -0.07207757 -117.44773854
     atom   17 type  1   force =     7.87673980    1.07772793 -235.03115421
     atom   18 type  1   force =     9.13130133   -1.06649110 -238.28083164
     atom   19 type  1   force =    -7.90847785    4.90173732 -236.79072770
     atom   20 type  1   force =    -8.33630530   -3.02494003 -239.28521418
     atom   21 type  2   force =    -3.24897793    0.08173909  -67.06507204
     atom   22 type  3   force =    -0.67192271   -4.78542635 -107.32175526
     atom   23 type  3   force =     2.46171356    4.39390327 -106.20794780
     The core correction contribution to forces
     atom    1 type  1   force =    -0.00000010    0.00003717   -0.01297179
     atom    2 type  1   force =    -0.00001470    0.00010720   -0.01295118
     atom    3 type  1   force =     0.00009649    0.00002427   -0.01291348
     atom    4 type  1   force =     0.00006556    0.00001028   -0.01293820
     atom    5 type  1   force =    -0.00026351    0.00003173   -0.00018641
     atom    6 type  1   force =     0.00004872    0.00001187   -0.00034710
     atom    7 type  1   force =    -0.00002678    0.00002272   -0.00048805
     atom    8 type  1   force =    -0.00004776    0.00000142   -0.00070683
     atom    9 type  1   force =    -0.00006848    0.00039050    0.00008713
     atom   10 type  1   force =    -0.00030926    0.00021124   -0.00028477
     atom   11 type  1   force =    -0.00025581    0.00078432   -0.00018875
     atom   12 type  1   force =     0.00018232    0.00022380    0.00001229
     atom   13 type  1   force =    -0.00015610   -0.00096492    0.00366475
     atom   14 type  1   force =     0.00008825    0.00074317    0.00101127
     atom   15 type  1   force =    -0.00005435   -0.00070432    0.00045261
     atom   16 type  1   force =     0.00037038   -0.00061404   -0.00221049
     atom   17 type  1   force =     0.00315339    0.00077649    0.01847343
     atom   18 type  1   force =     0.00325040   -0.00283889    0.01676688
     atom   19 type  1   force =     0.00361182   -0.00709212    0.00600986
     atom   20 type  1   force =    -0.00522734   -0.00401992    0.01833285
     atom   21 type  2   force =     0.00784591   -0.00798554   -0.00330980
     atom   22 type  3   force =    -0.00108163    0.01390905    0.01060999
     atom   23 type  3   force =    -0.00875652   -0.01008578    0.01421131
     The Hubbard contrib.    to forces
     atom    1 type  1   force =    -0.00000000   -0.00000000   -0.00000000
     atom    2 type  1   force =    -0.00000000    0.00000000   -0.00000000
     atom    3 type  1   force =    -0.00000000    0.00000000   -0.00000000
     atom    4 type  1   force =     0.00000000    0.00000000   -0.00000000
     atom    5 type  1   force =     0.00000000   -0.00000000   -0.00000000
     atom    6 type  1   force =    -0.00000000   -0.00000000   -0.00000000
     atom    7 type  1   force =    -0.00000000   -0.00000000    0.00000000
     atom    8 type  1   force =     0.00000000   -0.00000000    0.00000000
     atom    9 type  1   force =     0.00000000   -0.00000000   -0.00000000
     atom   10 type  1   force =     0.00000000   -0.00000000   -0.00000000
     atom   11 type  1   force =    -0.00000000   -0.00000000    0.00000000
     atom   12 type  1   force =     0.00000000    0.00000000   -0.00000000
     atom   13 type  1   force =     0.00000000   -0.00000000    0.00000000
     atom   14 type  1   force =    -0.00000000   -0.00000000   -0.00000000
     atom   15 type  1   force =    -0.00000000    0.00000000   -0.00000000
     atom   16 type  1   force =    -0.00000000    0.00000000    0.00000000
     atom   17 type  1   force =    -0.00000000   -0.00000000    0.00000000
     atom   18 type  1   force =    -0.00000000   -0.00000000    0.00000000
     atom   19 type  1   force =    -0.00000000    0.00000000    0.00000000
     atom   20 type  1   force =     0.00000000    0.00000000    0.00000000
     atom   21 type  2   force =    -0.00000000    0.00000000    0.00000000
     atom   22 type  3   force =     0.00000000   -0.00000000    0.00000000
     atom   23 type  3   force =     0.00000000    0.00000000    0.00000000
     The SCF correction term to forces
     atom    1 type  1   force =     0.00000000    0.00000000    0.00000000
     atom    2 type  1   force =     0.00000000    0.00000000    0.00000000
     atom    3 type  1   force =     0.00000000    0.00000000    0.00000000
     atom    4 type  1   force =     0.00000000    0.00000000    0.00000000
     atom    5 type  1   force =     0.00000000    0.00000000    0.00000000
     atom    6 type  1   force =     0.00000000    0.00000000    0.00000000
     atom    7 type  1   force =     0.00000000    0.00000000    0.00000000
     atom    8 type  1   force =     0.00000000    0.00000000    0.00000000
     atom    9 type  1   force =     0.00000000    0.00000000    0.00000000
     atom   10 type  1   force =     0.00000000    0.00000000    0.00000000
     atom   11 type  1   force =     0.00000000    0.00000000    0.00000000
     atom   12 type  1   force =     0.00000000    0.00000000    0.00000000
     atom   13 type  1   force =     0.00000978   -0.00001472    0.00015937
     atom   14 type  1   force =     0.00000862    0.00001455    0.00015393
     atom   15 type  1   force =    -0.00001015   -0.00001733    0.00014947
     atom   16 type  1   force =    -0.00000852    0.00001626    0.00015434
     atom   17 type  1   force =     0.00002327    0.00001207    0.00014170
     atom   18 type  1   force =     0.00001635   -0.00000856    0.00013092
     atom   19 type  1   force =    -0.00003385    0.00001860    0.00015532
     atom   20 type  1   force =    -0.00001779   -0.00000750    0.00013852
     atom   21 type  2   force =     0.00000546   -0.00000784    0.00000162
     atom   22 type  3   force =     0.00000280   -0.00002175   -0.00000127
     atom   23 type  3   force =     0.00001773    0.00001276   -0.00002531

     Total force =     0.000215     Total SCF correction =     0.000426
     SCF correction compared to forces is large: reduce conv_thr to get better values


     entering subroutine stress ...


     negative rho (up, down):  0.661E-04 0.125E-02
          total   stress  (Ry/bohr**3)                   (kbar)     P=  -13.35
  -0.00015104   0.00001568   0.00000077        -22.22      2.31      0.11
   0.00001568  -0.00012423  -0.00000026          2.31    -18.27     -0.04
   0.00000077  -0.00000026   0.00000304          0.11     -0.04      0.45

     kinetic stress (kbar)  32842.25    -36.02     -6.28
                              -36.02  32797.67     24.14
                               -6.28     24.14  32778.16

     local   stress (kbar)-861445.68   -472.05    125.61
                             -472.05-862010.43    338.38
                              125.61    338.38 910292.80

     nonloc. stress (kbar) -24592.77      6.38      5.65
                                6.38 -24586.79     -5.12
                                5.65     -5.12 -24536.37

     hartree stress (kbar) 455765.47    163.29    -20.64
                              163.29 455999.07   -130.37
                              -20.64   -130.37-419926.81

     exc-cor stress (kbar)  -1186.16      0.70     -0.93
                                0.70  -1184.83     -0.11
                               -0.93     -0.11  -1191.55

     corecor stress (kbar)  -6638.59     -0.00      0.27
                               -0.00  -6638.72     -0.07
                                0.27     -0.07  -6637.34

     ewald   stress (kbar) 405233.28    340.01   -103.57
                              340.01 405605.76   -226.89
                             -103.57   -226.89-490778.43

     hubbard stress (kbar)     -0.00      0.00      0.00
                                0.00     -0.00     -0.00
                                0.00     -0.00     -0.00

     london  stress (kbar)      0.00      0.00      0.00
                                0.00      0.00      0.00
                                0.00      0.00      0.00

     dft-nl  stress (kbar)      0.00      0.00      0.00
                                0.00      0.00      0.00
                                0.00      0.00      0.00



     Writing output data file Fe_100_2x2_CO2_FH.save
 
     init_run     :     50.85s CPU     54.39s WALL (       1 calls)
     electrons    :   2228.23s CPU   2407.54s WALL (       1 calls)
     forces       :     80.05s CPU     81.29s WALL (       1 calls)
     stress       :    387.45s CPU    397.65s WALL (       1 calls)

     Called by init_run:
     wfcinit      :     32.10s CPU     35.48s WALL (       1 calls)
     potinit      :      3.30s CPU      3.33s WALL (       1 calls)

     Called by electrons:
     c_bands      :   1124.71s CPU   1177.23s WALL (      28 calls)
     sum_band     :    585.62s CPU    608.59s WALL (      28 calls)
     v_of_rho     :     21.25s CPU     21.66s WALL (      29 calls)
     v_h          :      1.10s CPU      1.09s WALL (      29 calls)
     v_xc         :     21.55s CPU     21.98s WALL (      31 calls)
     newd         :    339.29s CPU    340.27s WALL (      29 calls)
     mix_rho      :    127.41s CPU    127.88s WALL (      28 calls)

     Called by c_bands:
     init_us_2    :      7.20s CPU      7.25s WALL (     350 calls)
     cegterg      :   1051.41s CPU   1073.20s WALL (     140 calls)

     Called by sum_band:
     sum_band:bec :      0.29s CPU      0.30s WALL (     140 calls)
     addusdens    :    382.60s CPU    383.32s WALL (      28 calls)

     Called by *egterg:
     h_psi        :    804.11s CPU    806.10s WALL (     518 calls)
     s_psi        :     57.84s CPU     57.85s WALL (     573 calls)
     g_psi        :      1.45s CPU      1.45s WALL (     373 calls)
     cdiaghg      :     60.70s CPU     61.05s WALL (     513 calls)
     cegterg:over :     57.67s CPU     57.71s WALL (     373 calls)
     cegterg:upda :     43.29s CPU     43.50s WALL (     373 calls)
     cegterg:last :     26.35s CPU     26.41s WALL (     140 calls)
     cdiaghg:chol :      2.94s CPU      2.95s WALL (     513 calls)
     cdiaghg:inve :      1.00s CPU      1.02s WALL (     513 calls)
     cdiaghg:para :     11.96s CPU     12.03s WALL (    1026 calls)

     Called by h_psi:
     h_psi:vloc   :    544.60s CPU    546.34s WALL (     518 calls)
     h_psi:vnl    :    102.29s CPU    102.37s WALL (     518 calls)
     add_vuspsi   :     49.82s CPU     49.83s WALL (     518 calls)
     vhpsi        :    154.37s CPU    154.54s WALL (     518 calls)

     General routines
     calbec       :    174.90s CPU    175.19s WALL (    2511 calls)
     fft          :     24.09s CPU     24.39s WALL (     933 calls)
     ffts         :     59.09s CPU     59.09s WALL (   11667 calls)
     fftw         :    539.56s CPU    541.05s WALL (   76094 calls)
     interpolate  :      3.88s CPU      3.94s WALL (     114 calls)
     davcio       :     13.66s CPU     78.19s WALL (    1025 calls)
 
     Parallel routines
     fft_scatter  :    280.85s CPU    282.06s WALL (   88694 calls)
     ALLTOALL     :     18.09s CPU     18.23s WALL (   75950 calls)
     Hubbard U routines
     new_ns       :     19.76s CPU     35.28s WALL (      28 calls)
     vhpsi        :    154.37s CPU    154.54s WALL (     518 calls)
     force_hub    :     21.05s CPU     21.94s WALL (       1 calls)
     stres_hub    :    207.27s CPU    217.19s WALL (       1 calls)
 
     PAW routines
     PAW_pot      :      7.28s CPU      7.31s WALL (      29 calls)
     PAW_ddot     :      6.02s CPU      6.05s WALL (     976 calls)
 
     PWSCF        : 46m 2.58s CPU    49m45.83s WALL

 
   This run was terminated on:   5:42:58  12Dec2015            

=------------------------------------------------------------------------------=
   JOB DONE.
=------------------------------------------------------------------------------=
Application 19354493 resources: utime ~138502s, stime ~4283s, Rss ~662584, inblocks ~6223911613, outblocks ~993442111
