ANIMSTEPS  12
CRYSTAL
PRIMVEC
    3.605953414    0.000000000    0.000000000
    0.000000000    3.605953414    0.000000000
    0.000000000    0.000000000    5.032969812
PRIMCOORD  1
      4   1
   Fe     0.00000   0.00000   0.00000   0.03974  -0.03026   0.00228
   Fe     1.80298   1.80298   0.00000   0.03974  -0.03026   0.00228
   S      0.00000   1.80298   1.20182   0.03974  -0.03026   0.00228
   S      1.80298   0.00000   3.83115   0.03974  -0.03026   0.00228
PRIMCOORD  2
      4   1
   Fe     0.00000   0.00000   0.00000   0.00372   0.00113  -0.04985
   Fe     1.80298   1.80298   0.00000   0.00372   0.00113  -0.04985
   S      0.00000   1.80298   1.20182   0.00372   0.00113  -0.04985
   S      1.80298   0.00000   3.83115   0.00372   0.00113  -0.04985
PRIMCOORD  3
      4   1
   Fe     0.00000   0.00000   0.00000  -0.03012  -0.03979  -0.00314
   Fe     1.80298   1.80298   0.00000  -0.03012  -0.03979  -0.00314
   S      0.00000   1.80298   1.20182  -0.03012  -0.03979  -0.00314
   S      1.80298   0.00000   3.83115  -0.03012  -0.03979  -0.00314
PRIMCOORD  4
      4   1
   Fe     0.00000   0.00000   0.00000   0.00000  -0.00000   0.07071
   Fe     1.80298   1.80298   0.00000  -0.00000  -0.00000  -0.07071
   S      0.00000   1.80298   1.20182  -0.00000  -0.00000   0.00000
   S      1.80298   0.00000   3.83115   0.00000   0.00000  -0.00000
PRIMCOORD  5
      4   1
   Fe     0.00000   0.00000   0.00000   0.02947   0.01808  -0.00000
   Fe     1.80298   1.80298   0.00000  -0.02947  -0.01808   0.00000
   S      0.00000   1.80298   1.20182  -0.05257   0.03226  -0.00000
   S      1.80298   0.00000   3.83115   0.05257  -0.03226  -0.00000
PRIMCOORD  6
      4   1
   Fe     0.00000   0.00000   0.00000  -0.01808   0.02947   0.00000
   Fe     1.80298   1.80298   0.00000   0.01808  -0.02947  -0.00000
   S      0.00000   1.80298   1.20182   0.03226   0.05257  -0.00000
   S      1.80298   0.00000   3.83115  -0.03226  -0.05257  -0.00000
PRIMCOORD  7
      4   1
   Fe     0.00000   0.00000   0.00000   0.00000  -0.00000  -0.00000
   Fe     1.80298   1.80298   0.00000   0.00000  -0.00000  -0.00000
   S      0.00000   1.80298   1.20182  -0.00000   0.00000   0.07071
   S      1.80298   0.00000   3.83115  -0.00000   0.00000  -0.07071
PRIMCOORD  8
      4   1
   Fe     0.00000   0.00000   0.00000   0.03347   0.01094  -0.00000
   Fe     1.80298   1.80298   0.00000   0.03347   0.01094   0.00000
   S      0.00000   1.80298   1.20182  -0.05828  -0.01905   0.00000
   S      1.80298   0.00000   3.83115  -0.05828  -0.01905  -0.00000
PRIMCOORD  9
      4   1
   Fe     0.00000   0.00000   0.00000  -0.01094   0.03347   0.00000
   Fe     1.80298   1.80298   0.00000  -0.01094   0.03347   0.00000
   S      0.00000   1.80298   1.20182   0.01905  -0.05828   0.00000
   S      1.80298   0.00000   3.83115   0.01905  -0.05828  -0.00000
PRIMCOORD 10
      4   1
   Fe     0.00000   0.00000   0.00000  -0.00000  -0.00000   0.03521
   Fe     1.80298   1.80298   0.00000   0.00000   0.00000   0.03521
   S      0.00000   1.80298   1.20182  -0.00000   0.00000  -0.06132
   S      1.80298   0.00000   3.83115   0.00000  -0.00000  -0.06132
PRIMCOORD 11
      4   1
   Fe     0.00000   0.00000   0.00000  -0.05053   0.00257  -0.00000
   Fe     1.80298   1.80298   0.00000   0.05053  -0.00257  -0.00000
   S      0.00000   1.80298   1.20182  -0.04933  -0.00251   0.00000
   S      1.80298   0.00000   3.83115   0.04933   0.00251   0.00000
PRIMCOORD 12
      4   1
   Fe     0.00000   0.00000   0.00000   0.00257   0.05053   0.00000
   Fe     1.80298   1.80298   0.00000  -0.00257  -0.05053   0.00000
   S      0.00000   1.80298   1.20182   0.00251  -0.04933  -0.00000
   S      1.80298   0.00000   3.83115  -0.00251   0.04933  -0.00000
