[Molden Format]
[FREQ]
    0.00
    0.00
    0.00
  232.15
  250.69
  250.69
  380.18
  384.11
  384.11
  404.78
  406.56
  406.56
[FR-COORD]
   Fe          0.00000        0.00000        0.00000
   Fe          3.40713        3.40713        0.00000
   S           0.00000        3.40713        2.27111
   S           3.40713        0.00000        7.23983
[FR-NORM-COORD]
 vibration     1
   0.39737  -0.30262   0.02281
   0.39737  -0.30262   0.02281
   0.39737  -0.30262   0.02281
   0.39737  -0.30262   0.02281
 vibration     2
   0.03718   0.01126  -0.49849
   0.03718   0.01126  -0.49849
   0.03718   0.01126  -0.49849
   0.03718   0.01126  -0.49849
 vibration     3
  -0.30119  -0.39786  -0.03145
  -0.30119  -0.39786  -0.03145
  -0.30119  -0.39786  -0.03145
  -0.30119  -0.39786  -0.03145
 vibration     4
   0.00000  -0.00000   0.70711
  -0.00000  -0.00000  -0.70711
  -0.00000  -0.00000   0.00000
   0.00000   0.00000  -0.00000
 vibration     5
   0.29471   0.18085  -0.00000
  -0.29471  -0.18085   0.00000
  -0.52571   0.32260  -0.00000
   0.52571  -0.32260  -0.00000
 vibration     6
  -0.18085   0.29471   0.00000
   0.18085  -0.29471  -0.00000
   0.32260   0.52571  -0.00000
  -0.32260  -0.52571  -0.00000
 vibration     7
   0.00000  -0.00000  -0.00000
   0.00000  -0.00000  -0.00000
  -0.00000   0.00000   0.70711
  -0.00000   0.00000  -0.70711
 vibration     8
   0.33468   0.10942  -0.00000
   0.33468   0.10942   0.00000
  -0.58285  -0.19055   0.00000
  -0.58285  -0.19055  -0.00000
 vibration     9
  -0.10942   0.33468   0.00000
  -0.10942   0.33468   0.00000
   0.19055  -0.58285   0.00000
   0.19055  -0.58285  -0.00000
 vibration    10
  -0.00000  -0.00000   0.35211
   0.00000   0.00000   0.35211
  -0.00000   0.00000  -0.61320
   0.00000  -0.00000  -0.61320
 vibration    11
  -0.50531   0.02569  -0.00000
   0.50531  -0.02569  -0.00000
  -0.49332  -0.02508   0.00000
   0.49332   0.02508   0.00000
 vibration    12
   0.02569   0.50531   0.00000
  -0.02569  -0.50531   0.00000
   0.02508  -0.49332  -0.00000
  -0.02508   0.49332  -0.00000
