ANIMSTEPS 10
CRYSTAL
PRIMVEC
    3.605953414    0.000000000    0.000000000
    0.000000000    3.605953414    0.000000000
    0.000000000    0.000000000    5.032969812
PRIMCOORD 1
      4  1
Fe 0.0 0.0 0.176775
Fe 1.80298 1.80298 -0.176775
S 0.0 1.80298 1.20182
S 1.80298 0.0 3.83115
PRIMCOORD 2
      4  1
Fe 0.0 0.0 0.143013979181
Fe 1.80298 1.80298 -0.143013979181
S 0.0 1.80298 1.20182
S 1.80298 0.0 3.83115
PRIMCOORD 3
      4  1
Fe 0.0 0.0 0.0546264791806
Fe 1.80298 1.80298 -0.0546264791806
S 0.0 1.80298 1.20182
S 1.80298 0.0 3.83115
PRIMCOORD 4
      4  1
Fe 0.0 0.0 -0.0546264791806
Fe 1.80298 1.80298 0.0546264791806
S 0.0 1.80298 1.20182
S 1.80298 0.0 3.83115
PRIMCOORD 5
      4  1
Fe 0.0 0.0 -0.143013979181
Fe 1.80298 1.80298 0.143013979181
S 0.0 1.80298 1.20182
S 1.80298 0.0 3.83115
PRIMCOORD 6
      4  1
Fe 0.0 0.0 -0.176775
Fe 1.80298 1.80298 0.176775
S 0.0 1.80298 1.20182
S 1.80298 0.0 3.83115
PRIMCOORD 7
      4  1
Fe 0.0 0.0 -0.143013979181
Fe 1.80298 1.80298 0.143013979181
S 0.0 1.80298 1.20182
S 1.80298 0.0 3.83115
PRIMCOORD 8
      4  1
Fe 0.0 0.0 -0.0546264791806
Fe 1.80298 1.80298 0.0546264791806
S 0.0 1.80298 1.20182
S 1.80298 0.0 3.83115
PRIMCOORD 9
      4  1
Fe 0.0 0.0 0.0546264791806
Fe 1.80298 1.80298 -0.0546264791806
S 0.0 1.80298 1.20182
S 1.80298 0.0 3.83115
PRIMCOORD 10
      4  1
Fe 0.0 0.0 0.143013979181
Fe 1.80298 1.80298 -0.143013979181
S 0.0 1.80298 1.20182
S 1.80298 0.0 3.83115
