ANIMSTEPS 10
CRYSTAL
PRIMVEC
    3.605953414    0.000000000    0.000000000
    0.000000000    3.605953414    0.000000000
    0.000000000    0.000000000    5.032969812
PRIMCOORD 1
      4  1
Fe 0.006425 0.126325 0.0
Fe 1.796555 1.676655 0.0
S 0.006275 1.679655 1.20182
S 1.796705 0.123325 3.83115
PRIMCOORD 2
      4  1
Fe 0.00519793418886 0.102199071814 0.0
Fe 1.79778206581 1.70078092819 0.0
S 0.0050765816397 1.70320797917 1.20182
S 1.79790341836 0.0997720208313 3.83115
PRIMCOORD 3
      4  1
Fe 0.00198543418886 0.0390365718144 0.0
Fe 1.80099456581 1.76394342819 0.0
S 0.0019390816397 1.76487047917 1.20182
S 1.80104091836 0.0381095208313 3.83115
PRIMCOORD 4
      4  1
Fe -0.00198543418886 -0.0390365718144 0.0
Fe 1.80496543419 1.84201657181 0.0
S -0.0019390816397 1.84108952083 1.20182
S 1.80491908164 -0.0381095208313 3.83115
PRIMCOORD 5
      4  1
Fe -0.00519793418886 -0.102199071814 0.0
Fe 1.80817793419 1.90517907181 0.0
S -0.0050765816397 1.90275202083 1.20182
S 1.80805658164 -0.0997720208313 3.83115
PRIMCOORD 6
      4  1
Fe -0.006425 -0.126325 0.0
Fe 1.809405 1.929305 0.0
S -0.006275 1.926305 1.20182
S 1.809255 -0.123325 3.83115
PRIMCOORD 7
      4  1
Fe -0.00519793418886 -0.102199071814 0.0
Fe 1.80817793419 1.90517907181 0.0
S -0.0050765816397 1.90275202083 1.20182
S 1.80805658164 -0.0997720208313 3.83115
PRIMCOORD 8
      4  1
Fe -0.00198543418886 -0.0390365718144 0.0
Fe 1.80496543419 1.84201657181 0.0
S -0.0019390816397 1.84108952083 1.20182
S 1.80491908164 -0.0381095208313 3.83115
PRIMCOORD 9
      4  1
Fe 0.00198543418886 0.0390365718144 0.0
Fe 1.80099456581 1.76394342819 0.0
S 0.0019390816397 1.76487047917 1.20182
S 1.80104091836 0.0381095208313 3.83115
PRIMCOORD 10
      4  1
Fe 0.00519793418886 0.102199071814 0.0
Fe 1.79778206581 1.70078092819 0.0
S 0.0050765816397 1.70320797917 1.20182
S 1.79790341836 0.0997720208313 3.83115
