ANIMSTEPS 10
CRYSTAL
PRIMVEC
    3.605953414    0.000000000    0.000000000
    0.000000000    3.605953414    0.000000000
    0.000000000    0.000000000    5.032969812
PRIMCOORD 1
      4  1
Fe -0.126325 0.006425 0.0
Fe 1.929305 1.796555 0.0
S -0.123325 1.796705 1.20182
S 1.926305 0.006275 3.83115
PRIMCOORD 2
      4  1
Fe -0.102199071814 0.00519793418886 0.0
Fe 1.90517907181 1.79778206581 0.0
S -0.0997720208313 1.79790341836 1.20182
S 1.90275202083 0.0050765816397 3.83115
PRIMCOORD 3
      4  1
Fe -0.0390365718144 0.00198543418886 0.0
Fe 1.84201657181 1.80099456581 0.0
S -0.0381095208313 1.80104091836 1.20182
S 1.84108952083 0.0019390816397 3.83115
PRIMCOORD 4
      4  1
Fe 0.0390365718144 -0.00198543418886 0.0
Fe 1.76394342819 1.80496543419 0.0
S 0.0381095208313 1.80491908164 1.20182
S 1.76487047917 -0.0019390816397 3.83115
PRIMCOORD 5
      4  1
Fe 0.102199071814 -0.00519793418886 0.0
Fe 1.70078092819 1.80817793419 0.0
S 0.0997720208313 1.80805658164 1.20182
S 1.70320797917 -0.0050765816397 3.83115
PRIMCOORD 6
      4  1
Fe 0.126325 -0.006425 0.0
Fe 1.676655 1.809405 0.0
S 0.123325 1.809255 1.20182
S 1.679655 -0.006275 3.83115
PRIMCOORD 7
      4  1
Fe 0.102199071814 -0.00519793418886 0.0
Fe 1.70078092819 1.80817793419 0.0
S 0.0997720208313 1.80805658164 1.20182
S 1.70320797917 -0.0050765816397 3.83115
PRIMCOORD 8
      4  1
Fe 0.0390365718144 -0.00198543418886 0.0
Fe 1.76394342819 1.80496543419 0.0
S 0.0381095208313 1.80491908164 1.20182
S 1.76487047917 -0.0019390816397 3.83115
PRIMCOORD 9
      4  1
Fe -0.0390365718144 0.00198543418886 0.0
Fe 1.84201657181 1.80099456581 0.0
S -0.0381095208313 1.80104091836 1.20182
S 1.84108952083 0.0019390816397 3.83115
PRIMCOORD 10
      4  1
Fe -0.102199071814 0.00519793418886 0.0
Fe 1.90517907181 1.79778206581 0.0
S -0.0997720208313 1.79790341836 1.20182
S 1.90275202083 0.0050765816397 3.83115
