ANIMSTEPS 10
CRYSTAL
PRIMVEC
    3.605953414    0.000000000    0.000000000
    0.000000000    3.605953414    0.000000000
    0.000000000    0.000000000    5.032969812
PRIMCOORD 1
      4  1
Fe 0.0093 0.002825 -0.124625
Fe 1.81228 1.805805 -0.124625
S 0.0093 1.805805 1.077195
S 1.81228 0.002825 3.706525
PRIMCOORD 2
      4  1
Fe 0.00752385804769 0.00228547300911 -0.100823742924
Fe 1.81050385805 1.80526547301 -0.100823742924
S 0.00752385804769 1.80526547301 1.10099625708
S 1.81050385805 0.00228547300911 3.73032625708
PRIMCOORD 3
      4  1
Fe 0.00287385804769 0.000872973009109 -0.038511242924
Fe 1.80585385805 1.80385297301 -0.038511242924
S 0.00287385804769 1.80385297301 1.16330875708
S 1.80585385805 0.000872973009109 3.79263875708
PRIMCOORD 4
      4  1
Fe -0.00287385804769 -0.000872973009109 0.038511242924
Fe 1.80010614195 1.80210702699 0.038511242924
S -0.00287385804769 1.80210702699 1.24033124292
S 1.80010614195 -0.000872973009109 3.86966124292
PRIMCOORD 5
      4  1
Fe -0.00752385804769 -0.00228547300911 0.100823742924
Fe 1.79545614195 1.80069452699 0.100823742924
S -0.00752385804769 1.80069452699 1.30264374292
S 1.79545614195 -0.00228547300911 3.93197374292
PRIMCOORD 6
      4  1
Fe -0.0093 -0.002825 0.124625
Fe 1.79368 1.800155 0.124625
S -0.0093 1.800155 1.326445
S 1.79368 -0.002825 3.955775
PRIMCOORD 7
      4  1
Fe -0.00752385804769 -0.00228547300911 0.100823742924
Fe 1.79545614195 1.80069452699 0.100823742924
S -0.00752385804769 1.80069452699 1.30264374292
S 1.79545614195 -0.00228547300911 3.93197374292
PRIMCOORD 8
      4  1
Fe -0.00287385804769 -0.000872973009109 0.038511242924
Fe 1.80010614195 1.80210702699 0.038511242924
S -0.00287385804769 1.80210702699 1.24033124292
S 1.80010614195 -0.000872973009109 3.86966124292
PRIMCOORD 9
      4  1
Fe 0.00287385804769 0.000872973009109 -0.038511242924
Fe 1.80585385805 1.80385297301 -0.038511242924
S 0.00287385804769 1.80385297301 1.16330875708
S 1.80585385805 0.000872973009109 3.79263875708
PRIMCOORD 10
      4  1
Fe 0.00752385804769 0.00228547300911 -0.100823742924
Fe 1.81050385805 1.80526547301 -0.100823742924
S 0.00752385804769 1.80526547301 1.10099625708
S 1.81050385805 0.00228547300911 3.73032625708
