ANIMSTEPS 10
CRYSTAL
PRIMVEC
    3.605953414    0.000000000    0.000000000
    0.000000000    3.605953414    0.000000000
    0.000000000    0.000000000    5.032969812
PRIMCOORD 1
      4  1
Fe 0.0 0.0 0.0
Fe 1.80298 1.80298 0.0
S 0.0 1.80298 1.378595
S 1.80298 0.0 3.654375
PRIMCOORD 2
      4  1
Fe 0.0 0.0 0.0
Fe 1.80298 1.80298 0.0
S 0.0 1.80298 1.34483397918
S 1.80298 0.0 3.68813602082
PRIMCOORD 3
      4  1
Fe 0.0 0.0 0.0
Fe 1.80298 1.80298 0.0
S 0.0 1.80298 1.25644647918
S 1.80298 0.0 3.77652352082
PRIMCOORD 4
      4  1
Fe 0.0 0.0 0.0
Fe 1.80298 1.80298 0.0
S 0.0 1.80298 1.14719352082
S 1.80298 0.0 3.88577647918
PRIMCOORD 5
      4  1
Fe 0.0 0.0 0.0
Fe 1.80298 1.80298 0.0
S 0.0 1.80298 1.05880602082
S 1.80298 0.0 3.97416397918
PRIMCOORD 6
      4  1
Fe 0.0 0.0 0.0
Fe 1.80298 1.80298 0.0
S 0.0 1.80298 1.025045
S 1.80298 0.0 4.007925
PRIMCOORD 7
      4  1
Fe 0.0 0.0 0.0
Fe 1.80298 1.80298 0.0
S 0.0 1.80298 1.05880602082
S 1.80298 0.0 3.97416397918
PRIMCOORD 8
      4  1
Fe 0.0 0.0 0.0
Fe 1.80298 1.80298 0.0
S 0.0 1.80298 1.14719352082
S 1.80298 0.0 3.88577647918
PRIMCOORD 9
      4  1
Fe 0.0 0.0 0.0
Fe 1.80298 1.80298 0.0
S 0.0 1.80298 1.25644647918
S 1.80298 0.0 3.77652352082
PRIMCOORD 10
      4  1
Fe 0.0 0.0 0.0
Fe 1.80298 1.80298 0.0
S 0.0 1.80298 1.34483397918
S 1.80298 0.0 3.68813602082
