ANIMSTEPS 10
CRYSTAL
PRIMVEC
    3.605953414    0.000000000    0.000000000
    0.000000000    3.605953414    0.000000000
    0.000000000    0.000000000    5.032969812
PRIMCOORD 1
      4  1
Fe 0.073675 0.0452 0.0
Fe 1.729305 1.75778 0.0
S -0.131425 1.88363 1.20182
S 1.934405 -0.08065 3.83115
PRIMCOORD 2
      4  1
Fe 0.0596043270606 0.0365675681457 0.0
Fe 1.74337567294 1.76641243185 0.0
S -0.106325058486 1.8682272206 1.20182
S 1.90930505849 -0.0652472205963 3.83115
PRIMCOORD 3
      4  1
Fe 0.0227668270606 0.0139675681457 0.0
Fe 1.78021317294 1.78901243185 0.0
S -0.0406125584857 1.8279022206 1.20182
S 1.84359255849 -0.0249222205963 3.83115
PRIMCOORD 4
      4  1
Fe -0.0227668270606 -0.0139675681457 0.0
Fe 1.82574682706 1.81694756815 0.0
S 0.0406125584857 1.7780577794 1.20182
S 1.76236744151 0.0249222205963 3.83115
PRIMCOORD 5
      4  1
Fe -0.0596043270606 -0.0365675681457 0.0
Fe 1.86258432706 1.83954756815 0.0
S 0.106325058486 1.7377327794 1.20182
S 1.69665494151 0.0652472205963 3.83115
PRIMCOORD 6
      4  1
Fe -0.073675 -0.0452 0.0
Fe 1.876655 1.84818 0.0
S 0.131425 1.72233 1.20182
S 1.671555 0.08065 3.83115
PRIMCOORD 7
      4  1
Fe -0.0596043270606 -0.0365675681457 0.0
Fe 1.86258432706 1.83954756815 0.0
S 0.106325058486 1.7377327794 1.20182
S 1.69665494151 0.0652472205963 3.83115
PRIMCOORD 8
      4  1
Fe -0.0227668270606 -0.0139675681457 0.0
Fe 1.82574682706 1.81694756815 0.0
S 0.0406125584857 1.7780577794 1.20182
S 1.76236744151 0.0249222205963 3.83115
PRIMCOORD 9
      4  1
Fe 0.0227668270606 0.0139675681457 0.0
Fe 1.78021317294 1.78901243185 0.0
S -0.0406125584857 1.8279022206 1.20182
S 1.84359255849 -0.0249222205963 3.83115
PRIMCOORD 10
      4  1
Fe 0.0596043270606 0.0365675681457 0.0
Fe 1.74337567294 1.76641243185 0.0
S -0.106325058486 1.8682272206 1.20182
S 1.90930505849 -0.0652472205963 3.83115
