ANIMSTEPS 10
CRYSTAL
PRIMVEC
    3.605953414    0.000000000    0.000000000
    0.000000000    3.605953414    0.000000000
    0.000000000    0.000000000    5.032969812
PRIMCOORD 1
      4  1
Fe -0.0753 -0.099475 -0.00785
Fe 1.72768 1.703505 -0.00785
S -0.0753 1.703505 1.19397
S 1.72768 -0.099475 3.8233
PRIMCOORD 2
      4  1
Fe -0.0609189796764 -0.0804769655154 -0.00635078340584
Fe 1.74206102032 1.72250303448 -0.00635078340584
S -0.0609189796764 1.72250303448 1.19546921659
S 1.74206102032 -0.0804769655154 3.82479921659
PRIMCOORD 3
      4  1
Fe -0.0232689796764 -0.0307394655154 -0.00242578340584
Fe 1.77971102032 1.77224053448 -0.00242578340584
S -0.0232689796764 1.77224053448 1.19939421659
S 1.77971102032 -0.0307394655154 3.82872421659
PRIMCOORD 4
      4  1
Fe 0.0232689796764 0.0307394655154 0.00242578340584
Fe 1.82624897968 1.83371946552 0.00242578340584
S 0.0232689796764 1.83371946552 1.20424578341
S 1.82624897968 0.0307394655154 3.83357578341
PRIMCOORD 5
      4  1
Fe 0.0609189796764 0.0804769655154 0.00635078340584
Fe 1.86389897968 1.88345696552 0.00635078340584
S 0.0609189796764 1.88345696552 1.20817078341
S 1.86389897968 0.0804769655154 3.83750078341
PRIMCOORD 6
      4  1
Fe 0.0753 0.099475 0.00785
Fe 1.87828 1.902455 0.00785
S 0.0753 1.902455 1.20967
S 1.87828 0.099475 3.839
PRIMCOORD 7
      4  1
Fe 0.0609189796764 0.0804769655154 0.00635078340584
Fe 1.86389897968 1.88345696552 0.00635078340584
S 0.0609189796764 1.88345696552 1.20817078341
S 1.86389897968 0.0804769655154 3.83750078341
PRIMCOORD 8
      4  1
Fe 0.0232689796764 0.0307394655154 0.00242578340584
Fe 1.82624897968 1.83371946552 0.00242578340584
S 0.0232689796764 1.83371946552 1.20424578341
S 1.82624897968 0.0307394655154 3.83357578341
PRIMCOORD 9
      4  1
Fe -0.0232689796764 -0.0307394655154 -0.00242578340584
Fe 1.77971102032 1.77224053448 -0.00242578340584
S -0.0232689796764 1.77224053448 1.19939421659
S 1.77971102032 -0.0307394655154 3.82872421659
PRIMCOORD 10
      4  1
Fe -0.0609189796764 -0.0804769655154 -0.00635078340584
Fe 1.74206102032 1.72250303448 -0.00635078340584
S -0.0609189796764 1.72250303448 1.19546921659
S 1.74206102032 -0.0804769655154 3.82479921659
