ANIMSTEPS 10
CRYSTAL
PRIMVEC
    3.605953414    0.000000000    0.000000000
    0.000000000    3.605953414    0.000000000
    0.000000000    0.000000000    5.032969812
PRIMCOORD 1
      4  1
Fe 0.0 0.0 0.088025
Fe 1.80298 1.80298 0.088025
S 0.0 1.80298 1.04852
S 1.80298 0.0 3.67785
PRIMCOORD 2
      4  1
Fe 0.0 0.0 0.0712137209299
Fe 1.80298 1.80298 0.0712137209299
S 0.0 1.80298 1.07779769476
S 1.80298 0.0 3.70712769476
PRIMCOORD 3
      4  1
Fe 0.0 0.0 0.0272012209299
Fe 1.80298 1.80298 0.0272012209299
S 0.0 1.80298 1.15444769476
S 1.80298 0.0 3.78377769476
PRIMCOORD 4
      4  1
Fe 0.0 0.0 -0.0272012209299
Fe 1.80298 1.80298 -0.0272012209299
S 0.0 1.80298 1.24919230524
S 1.80298 0.0 3.87852230524
PRIMCOORD 5
      4  1
Fe 0.0 0.0 -0.0712137209299
Fe 1.80298 1.80298 -0.0712137209299
S 0.0 1.80298 1.32584230524
S 1.80298 0.0 3.95517230524
PRIMCOORD 6
      4  1
Fe 0.0 0.0 -0.088025
Fe 1.80298 1.80298 -0.088025
S 0.0 1.80298 1.35512
S 1.80298 0.0 3.98445
PRIMCOORD 7
      4  1
Fe 0.0 0.0 -0.0712137209299
Fe 1.80298 1.80298 -0.0712137209299
S 0.0 1.80298 1.32584230524
S 1.80298 0.0 3.95517230524
PRIMCOORD 8
      4  1
Fe 0.0 0.0 -0.0272012209299
Fe 1.80298 1.80298 -0.0272012209299
S 0.0 1.80298 1.24919230524
S 1.80298 0.0 3.87852230524
PRIMCOORD 9
      4  1
Fe 0.0 0.0 0.0272012209299
Fe 1.80298 1.80298 0.0272012209299
S 0.0 1.80298 1.15444769476
S 1.80298 0.0 3.78377769476
PRIMCOORD 10
      4  1
Fe 0.0 0.0 0.0712137209299
Fe 1.80298 1.80298 0.0712137209299
S 0.0 1.80298 1.07779769476
S 1.80298 0.0 3.70712769476
