Defaulting to ethernet
No MPI process pinning
Starting MPD ring...
PBS has allocated the following nodes:
cx1-5-15-1
cx1-5-15-1
cx1-5-15-1
cx1-5-15-1
cx1-5-15-1
cx1-5-15-1
cx1-5-15-1
cx1-5-15-1
cx1-5-15-1
cx1-5-15-1
cx1-5-15-1
cx1-5-15-1
cx1-5-15-1
cx1-5-15-1
cx1-5-15-1
cx1-5-15-1
---
mpiexec.intel -genv I_MPI_DEVICE ssm -genv I_MPI_DEBUG 0 -genv I_MPI_PIN yes -genv I_MPI_PIN_MODE lib -genv I_MPI_FALLBACK_DEVICE disable -genv DAPL_MAX_CM_RETRIES 500 -genv DAPL_MAX_CM_RESPONSE_TIME 300 -genv I_MPI_DAPL_CONNECTION_TIMEOUT 300 -machinefile /tmp/pbs.355379.cx1b/tmp.Tb1hHY4DeX -n 16 -wdir /work/ablancar/QE/Work/PBE_work/H2O_paw_12A_nspin2/PDOS/H2O_paw_12A_nspin2 projwfc.x

Job output begins below
-----------------------

     Program PROJWFC v.5.0.2 (svn rev. 9392) starts on 11Sep2015 at  8:51:50 

     This program is part of the open-source Quantum ESPRESSO suite
     for quantum simulation of materials; please cite
         "P. Giannozzi et al., J. Phys.:Condens. Matter 21 395502 (2009);
          URL http://www.quantum-espresso.org", 
     in publications or presentations arising from this work. More details at
     http://www.quantum-espresso.org/quote.php

     Parallel version (MPI), running on    16 processors
     R & G space division:  proc/nbgrp/npool/nimage =      16

   Info: using nr1, nr2, nr3 values from input

   Info: using nr1s, nr2s, nr3s values from input

     IMPORTANT: XC functional enforced from input :
     Exchange-correlation      = PBE ( 1 4 3 4 0)
     EXX-fraction              =        0.00
     Any further DFT definition will be discarded
     Please, verify this is what you really want

               file H.pbe-kjpaw_psl.0.1.upf: wavefunction(s)  1S renormalized
               file O.pbe-n-kjpaw_psl.0.1.UPF: wavefunction(s)  2P renormalized
 
     Parallelization info
     --------------------
     sticks:   dense  smooth     PW     G-vecs:    dense   smooth      PW
     Min         572     273     68                41276    13531    1691
     Max         573     274     70                41279    13554    1694
     Sum        9153    4373   1093               660429   216679   27081
 

     negative rho (up, down):  0.102E-04 0.102E-04

     Gaussian broadening (read from input): ngauss,degauss=   0    0.010000


     Calling pprojwave .... 
 
  Problem Sizes 
  natomwfc =            6
  nbnd     =           10
  nkstot   =            2
  npwx     =         1694
  nkb      =           12
 

     Atomic states used for projection
     (read from pseudopotential files):

     state #   1: atom   1 (O  ), wfc  1 (l=0 m= 1)
     state #   2: atom   1 (O  ), wfc  2 (l=1 m= 1)
     state #   3: atom   1 (O  ), wfc  2 (l=1 m= 2)
     state #   4: atom   1 (O  ), wfc  2 (l=1 m= 3)
     state #   5: atom   2 (H  ), wfc  1 (l=0 m= 1)
     state #   6: atom   3 (H  ), wfc  1 (l=0 m= 1)

 k =   0.0000000000  0.0000000000  0.0000000000
     e =   -24.78964 eV
     psi = 0.713*[#   1]+0.118*[#   5]+0.118*[#   6]+0.038*[#   4]+
    |psi|^2 = 0.988
     e =   -12.57308 eV
     psi = 0.691*[#   2]+0.143*[#   5]+0.143*[#   6]+
    |psi|^2 = 0.978
     e =    -8.83596 eV
     psi = 0.814*[#   4]+0.121*[#   1]+0.025*[#   5]+0.025*[#   6]+
    |psi|^2 = 0.984
     e =    -6.72025 eV
     psi = 0.990*[#   3]+
    |psi|^2 = 0.990
     e =    -1.16001 eV
     psi = 0.202*[#   5]+0.202*[#   6]+0.073*[#   1]+0.046*[#   4]+
    |psi|^2 = 0.523
     e =     2.17617 eV
     psi = 0.063*[#   5]+0.063*[#   6]+0.032*[#   4]+0.027*[#   1]+
    |psi|^2 = 0.185
     e =     2.26573 eV
     psi = 0.191*[#   5]+0.191*[#   6]+0.098*[#   2]+
    |psi|^2 = 0.481
     e =     2.63659 eV
     psi = 
    |psi|^2 = 0.002
     e =     2.97341 eV
     psi = 0.003*[#   3]+
    |psi|^2 = 0.003
     e =     3.11303 eV
     psi = 0.006*[#   5]+0.006*[#   6]+0.001*[#   1]+
    |psi|^2 = 0.014

 k =   0.0000000000  0.0000000000  0.0000000000
     e =   -24.78963 eV
     psi = 0.713*[#   1]+0.118*[#   5]+0.118*[#   6]+0.038*[#   4]+
    |psi|^2 = 0.988
     e =   -12.57309 eV
     psi = 0.691*[#   2]+0.143*[#   5]+0.143*[#   6]+
    |psi|^2 = 0.978
     e =    -8.83597 eV
     psi = 0.814*[#   4]+0.121*[#   1]+0.025*[#   5]+0.025*[#   6]+
    |psi|^2 = 0.984
     e =    -6.72015 eV
     psi = 0.990*[#   3]+
    |psi|^2 = 0.990
     e =    -1.16008 eV
     psi = 0.202*[#   5]+0.202*[#   6]+0.073*[#   1]+0.046*[#   4]+
    |psi|^2 = 0.523
     e =     2.17609 eV
     psi = 0.063*[#   5]+0.063*[#   6]+0.032*[#   4]+0.027*[#   1]+
    |psi|^2 = 0.185
     e =     2.26572 eV
     psi = 0.191*[#   5]+0.191*[#   6]+0.098*[#   2]+
    |psi|^2 = 0.480
     e =     2.63649 eV
     psi = 
    |psi|^2 = 0.002
     e =     2.97329 eV
     psi = 0.003*[#   3]+
    |psi|^2 = 0.003
     e =     3.11292 eV
     psi = 0.006*[#   5]+0.006*[#   6]+0.001*[#   1]+
    |psi|^2 = 0.014

Lowdin Charges: 

     Atom #   1: total charge =   6.7337, s =  1.6674, p =  5.0663, 
                 spin up      =   3.3668, s =  0.8337, p =  2.5331, 
                 spin down    =   3.3668, s =  0.8337, p =  2.5331, 
                 polarization =  -0.0000, s =  0.0000, p = -0.0000, 
     Atom #   2: total charge =   0.5722, s =  0.5722, p =  0.0000, 
                 spin up      =   0.2861, s =  0.2861, p =  0.0000, 
                 spin down    =   0.2861, s =  0.2861, p =  0.0000, 
                 polarization =   0.0000, s =  0.0000, p =  0.0000, 
     Atom #   3: total charge =   0.5722, s =  0.5722, p =  0.0000, 
                 spin up      =   0.2861, s =  0.2861, p =  0.0000, 
                 spin down    =   0.2861, s =  0.2861, p =  0.0000, 
                 polarization =   0.0000, s =  0.0000, p =  0.0000, 
     Spilling Parameter:   0.0152
