
     Program PROJWFC v.5.0.2 (svn rev. 9656) starts on  8Aug2015 at  0:17:27 

     This program is part of the open-source Quantum ESPRESSO suite
     for quantum simulation of materials; please cite
         "P. Giannozzi et al., J. Phys.:Condens. Matter 21 395502 (2009);
          URL http://www.quantum-espresso.org", 
     in publications or presentations arising from this work. More details at
     http://www.quantum-espresso.org/quote.php

     Parallel version (MPI & OpenMP), running on      48 processor cores
     Number of MPI processes:                48
     Threads/MPI process:                     1
     K-points division:     npool     =       4
     R & G space division:  proc/nbgrp/npool/nimage =      12

   Info: using nr1, nr2, nr3 values from input

   Info: using nr1s, nr2s, nr3s values from input

     IMPORTANT: XC functional enforced from input :
     Exchange-correlation      = PBE ( 1 4 3 4 0)
     EXX-fraction              =        0.00
     Any further DFT definition will be discarded
     Please, verify this is what you really want

               file Fe.pbe-spn-kjpaw_psl.0.2.1.UPF: wavefunction(s)  3D renormalized
 
     Parallelization info
     --------------------
     sticks:   dense  smooth     PW     G-vecs:    dense   smooth      PW
     Min         429     203     57                99954    32713    4877
     Max         431     204     58                99959    32748    4892
     Sum        5161    2447    693              1199489   392779   58615
 

     Check: negative/imaginary core charge=   -0.000012    0.000000

     negative rho (up, down):  0.593E-04 0.667E-03

     Gaussian broadening (read from input): ngauss,degauss=   0    0.010000


     Calling pprojwave .... 
 
  Problem Sizes 
  natomwfc =          260
  nbnd     =          192
  nkstot   =           20
  npwx     =         4230
  nkb      =          360
 

     Atomic states used for projection
     (read from pseudopotential files):

     state #   1: atom   1 (Fe ), wfc  1 (l=0 m= 1)
     state #   2: atom   1 (Fe ), wfc  2 (l=0 m= 1)
     state #   3: atom   1 (Fe ), wfc  3 (l=1 m= 1)
     state #   4: atom   1 (Fe ), wfc  3 (l=1 m= 2)
     state #   5: atom   1 (Fe ), wfc  3 (l=1 m= 3)
     state #   6: atom   1 (Fe ), wfc  4 (l=1 m= 1)
     state #   7: atom   1 (Fe ), wfc  4 (l=1 m= 2)
     state #   8: atom   1 (Fe ), wfc  4 (l=1 m= 3)
     state #   9: atom   1 (Fe ), wfc  5 (l=2 m= 1)
     state #  10: atom   1 (Fe ), wfc  5 (l=2 m= 2)
     state #  11: atom   1 (Fe ), wfc  5 (l=2 m= 3)
     state #  12: atom   1 (Fe ), wfc  5 (l=2 m= 4)
     state #  13: atom   1 (Fe ), wfc  5 (l=2 m= 5)
     state #  14: atom   2 (Fe ), wfc  1 (l=0 m= 1)
     state #  15: atom   2 (Fe ), wfc  2 (l=0 m= 1)
     state #  16: atom   2 (Fe ), wfc  3 (l=1 m= 1)
     state #  17: atom   2 (Fe ), wfc  3 (l=1 m= 2)
     state #  18: atom   2 (Fe ), wfc  3 (l=1 m= 3)
     state #  19: atom   2 (Fe ), wfc  4 (l=1 m= 1)
     state #  20: atom   2 (Fe ), wfc  4 (l=1 m= 2)
     state #  21: atom   2 (Fe ), wfc  4 (l=1 m= 3)
     state #  22: atom   2 (Fe ), wfc  5 (l=2 m= 1)
     state #  23: atom   2 (Fe ), wfc  5 (l=2 m= 2)
     state #  24: atom   2 (Fe ), wfc  5 (l=2 m= 3)
     state #  25: atom   2 (Fe ), wfc  5 (l=2 m= 4)
     state #  26: atom   2 (Fe ), wfc  5 (l=2 m= 5)
     state #  27: atom   3 (Fe ), wfc  1 (l=0 m= 1)
     state #  28: atom   3 (Fe ), wfc  2 (l=0 m= 1)
     state #  29: atom   3 (Fe ), wfc  3 (l=1 m= 1)
     state #  30: atom   3 (Fe ), wfc  3 (l=1 m= 2)
     state #  31: atom   3 (Fe ), wfc  3 (l=1 m= 3)
     state #  32: atom   3 (Fe ), wfc  4 (l=1 m= 1)
     state #  33: atom   3 (Fe ), wfc  4 (l=1 m= 2)
     state #  34: atom   3 (Fe ), wfc  4 (l=1 m= 3)
     state #  35: atom   3 (Fe ), wfc  5 (l=2 m= 1)
     state #  36: atom   3 (Fe ), wfc  5 (l=2 m= 2)
     state #  37: atom   3 (Fe ), wfc  5 (l=2 m= 3)
     state #  38: atom   3 (Fe ), wfc  5 (l=2 m= 4)
     state #  39: atom   3 (Fe ), wfc  5 (l=2 m= 5)
     state #  40: atom   4 (Fe ), wfc  1 (l=0 m= 1)
     state #  41: atom   4 (Fe ), wfc  2 (l=0 m= 1)
     state #  42: atom   4 (Fe ), wfc  3 (l=1 m= 1)
     state #  43: atom   4 (Fe ), wfc  3 (l=1 m= 2)
     state #  44: atom   4 (Fe ), wfc  3 (l=1 m= 3)
     state #  45: atom   4 (Fe ), wfc  4 (l=1 m= 1)
     state #  46: atom   4 (Fe ), wfc  4 (l=1 m= 2)
     state #  47: atom   4 (Fe ), wfc  4 (l=1 m= 3)
     state #  48: atom   4 (Fe ), wfc  5 (l=2 m= 1)
     state #  49: atom   4 (Fe ), wfc  5 (l=2 m= 2)
     state #  50: atom   4 (Fe ), wfc  5 (l=2 m= 3)
     state #  51: atom   4 (Fe ), wfc  5 (l=2 m= 4)
     state #  52: atom   4 (Fe ), wfc  5 (l=2 m= 5)
     state #  53: atom   5 (Fe ), wfc  1 (l=0 m= 1)
     state #  54: atom   5 (Fe ), wfc  2 (l=0 m= 1)
     state #  55: atom   5 (Fe ), wfc  3 (l=1 m= 1)
     state #  56: atom   5 (Fe ), wfc  3 (l=1 m= 2)
     state #  57: atom   5 (Fe ), wfc  3 (l=1 m= 3)
     state #  58: atom   5 (Fe ), wfc  4 (l=1 m= 1)
     state #  59: atom   5 (Fe ), wfc  4 (l=1 m= 2)
     state #  60: atom   5 (Fe ), wfc  4 (l=1 m= 3)
     state #  61: atom   5 (Fe ), wfc  5 (l=2 m= 1)
     state #  62: atom   5 (Fe ), wfc  5 (l=2 m= 2)
     state #  63: atom   5 (Fe ), wfc  5 (l=2 m= 3)
     state #  64: atom   5 (Fe ), wfc  5 (l=2 m= 4)
     state #  65: atom   5 (Fe ), wfc  5 (l=2 m= 5)
     state #  66: atom   6 (Fe ), wfc  1 (l=0 m= 1)
     state #  67: atom   6 (Fe ), wfc  2 (l=0 m= 1)
     state #  68: atom   6 (Fe ), wfc  3 (l=1 m= 1)
     state #  69: atom   6 (Fe ), wfc  3 (l=1 m= 2)
     state #  70: atom   6 (Fe ), wfc  3 (l=1 m= 3)
     state #  71: atom   6 (Fe ), wfc  4 (l=1 m= 1)
     state #  72: atom   6 (Fe ), wfc  4 (l=1 m= 2)
     state #  73: atom   6 (Fe ), wfc  4 (l=1 m= 3)
     state #  74: atom   6 (Fe ), wfc  5 (l=2 m= 1)
     state #  75: atom   6 (Fe ), wfc  5 (l=2 m= 2)
     state #  76: atom   6 (Fe ), wfc  5 (l=2 m= 3)
     state #  77: atom   6 (Fe ), wfc  5 (l=2 m= 4)
     state #  78: atom   6 (Fe ), wfc  5 (l=2 m= 5)
     state #  79: atom   7 (Fe ), wfc  1 (l=0 m= 1)
     state #  80: atom   7 (Fe ), wfc  2 (l=0 m= 1)
     state #  81: atom   7 (Fe ), wfc  3 (l=1 m= 1)
     state #  82: atom   7 (Fe ), wfc  3 (l=1 m= 2)
     state #  83: atom   7 (Fe ), wfc  3 (l=1 m= 3)
     state #  84: atom   7 (Fe ), wfc  4 (l=1 m= 1)
     state #  85: atom   7 (Fe ), wfc  4 (l=1 m= 2)
     state #  86: atom   7 (Fe ), wfc  4 (l=1 m= 3)
     state #  87: atom   7 (Fe ), wfc  5 (l=2 m= 1)
     state #  88: atom   7 (Fe ), wfc  5 (l=2 m= 2)
     state #  89: atom   7 (Fe ), wfc  5 (l=2 m= 3)
     state #  90: atom   7 (Fe ), wfc  5 (l=2 m= 4)
     state #  91: atom   7 (Fe ), wfc  5 (l=2 m= 5)
     state #  92: atom   8 (Fe ), wfc  1 (l=0 m= 1)
     state #  93: atom   8 (Fe ), wfc  2 (l=0 m= 1)
     state #  94: atom   8 (Fe ), wfc  3 (l=1 m= 1)
     state #  95: atom   8 (Fe ), wfc  3 (l=1 m= 2)
     state #  96: atom   8 (Fe ), wfc  3 (l=1 m= 3)
     state #  97: atom   8 (Fe ), wfc  4 (l=1 m= 1)
     state #  98: atom   8 (Fe ), wfc  4 (l=1 m= 2)
     state #  99: atom   8 (Fe ), wfc  4 (l=1 m= 3)
     state # 100: atom   8 (Fe ), wfc  5 (l=2 m= 1)
     state # 101: atom   8 (Fe ), wfc  5 (l=2 m= 2)
     state # 102: atom   8 (Fe ), wfc  5 (l=2 m= 3)
     state # 103: atom   8 (Fe ), wfc  5 (l=2 m= 4)
     state # 104: atom   8 (Fe ), wfc  5 (l=2 m= 5)
     state # 105: atom   9 (Fe ), wfc  1 (l=0 m= 1)
     state # 106: atom   9 (Fe ), wfc  2 (l=0 m= 1)
     state # 107: atom   9 (Fe ), wfc  3 (l=1 m= 1)
     state # 108: atom   9 (Fe ), wfc  3 (l=1 m= 2)
     state # 109: atom   9 (Fe ), wfc  3 (l=1 m= 3)
     state # 110: atom   9 (Fe ), wfc  4 (l=1 m= 1)
     state # 111: atom   9 (Fe ), wfc  4 (l=1 m= 2)
     state # 112: atom   9 (Fe ), wfc  4 (l=1 m= 3)
     state # 113: atom   9 (Fe ), wfc  5 (l=2 m= 1)
     state # 114: atom   9 (Fe ), wfc  5 (l=2 m= 2)
     state # 115: atom   9 (Fe ), wfc  5 (l=2 m= 3)
     state # 116: atom   9 (Fe ), wfc  5 (l=2 m= 4)
     state # 117: atom   9 (Fe ), wfc  5 (l=2 m= 5)
     state # 118: atom  10 (Fe ), wfc  1 (l=0 m= 1)
     state # 119: atom  10 (Fe ), wfc  2 (l=0 m= 1)
     state # 120: atom  10 (Fe ), wfc  3 (l=1 m= 1)
     state # 121: atom  10 (Fe ), wfc  3 (l=1 m= 2)
     state # 122: atom  10 (Fe ), wfc  3 (l=1 m= 3)
     state # 123: atom  10 (Fe ), wfc  4 (l=1 m= 1)
     state # 124: atom  10 (Fe ), wfc  4 (l=1 m= 2)
     state # 125: atom  10 (Fe ), wfc  4 (l=1 m= 3)
     state # 126: atom  10 (Fe ), wfc  5 (l=2 m= 1)
     state # 127: atom  10 (Fe ), wfc  5 (l=2 m= 2)
     state # 128: atom  10 (Fe ), wfc  5 (l=2 m= 3)
     state # 129: atom  10 (Fe ), wfc  5 (l=2 m= 4)
     state # 130: atom  10 (Fe ), wfc  5 (l=2 m= 5)
     state # 131: atom  11 (Fe ), wfc  1 (l=0 m= 1)
     state # 132: atom  11 (Fe ), wfc  2 (l=0 m= 1)
     state # 133: atom  11 (Fe ), wfc  3 (l=1 m= 1)
     state # 134: atom  11 (Fe ), wfc  3 (l=1 m= 2)
     state # 135: atom  11 (Fe ), wfc  3 (l=1 m= 3)
     state # 136: atom  11 (Fe ), wfc  4 (l=1 m= 1)
     state # 137: atom  11 (Fe ), wfc  4 (l=1 m= 2)
     state # 138: atom  11 (Fe ), wfc  4 (l=1 m= 3)
     state # 139: atom  11 (Fe ), wfc  5 (l=2 m= 1)
     state # 140: atom  11 (Fe ), wfc  5 (l=2 m= 2)
     state # 141: atom  11 (Fe ), wfc  5 (l=2 m= 3)
     state # 142: atom  11 (Fe ), wfc  5 (l=2 m= 4)
     state # 143: atom  11 (Fe ), wfc  5 (l=2 m= 5)
     state # 144: atom  12 (Fe ), wfc  1 (l=0 m= 1)
     state # 145: atom  12 (Fe ), wfc  2 (l=0 m= 1)
     state # 146: atom  12 (Fe ), wfc  3 (l=1 m= 1)
     state # 147: atom  12 (Fe ), wfc  3 (l=1 m= 2)
     state # 148: atom  12 (Fe ), wfc  3 (l=1 m= 3)
     state # 149: atom  12 (Fe ), wfc  4 (l=1 m= 1)
     state # 150: atom  12 (Fe ), wfc  4 (l=1 m= 2)
     state # 151: atom  12 (Fe ), wfc  4 (l=1 m= 3)
     state # 152: atom  12 (Fe ), wfc  5 (l=2 m= 1)
     state # 153: atom  12 (Fe ), wfc  5 (l=2 m= 2)
     state # 154: atom  12 (Fe ), wfc  5 (l=2 m= 3)
     state # 155: atom  12 (Fe ), wfc  5 (l=2 m= 4)
     state # 156: atom  12 (Fe ), wfc  5 (l=2 m= 5)
     state # 157: atom  13 (Fe ), wfc  1 (l=0 m= 1)
     state # 158: atom  13 (Fe ), wfc  2 (l=0 m= 1)
     state # 159: atom  13 (Fe ), wfc  3 (l=1 m= 1)
     state # 160: atom  13 (Fe ), wfc  3 (l=1 m= 2)
     state # 161: atom  13 (Fe ), wfc  3 (l=1 m= 3)
     state # 162: atom  13 (Fe ), wfc  4 (l=1 m= 1)
     state # 163: atom  13 (Fe ), wfc  4 (l=1 m= 2)
     state # 164: atom  13 (Fe ), wfc  4 (l=1 m= 3)
     state # 165: atom  13 (Fe ), wfc  5 (l=2 m= 1)
     state # 166: atom  13 (Fe ), wfc  5 (l=2 m= 2)
     state # 167: atom  13 (Fe ), wfc  5 (l=2 m= 3)
     state # 168: atom  13 (Fe ), wfc  5 (l=2 m= 4)
     state # 169: atom  13 (Fe ), wfc  5 (l=2 m= 5)
     state # 170: atom  14 (Fe ), wfc  1 (l=0 m= 1)
     state # 171: atom  14 (Fe ), wfc  2 (l=0 m= 1)
     state # 172: atom  14 (Fe ), wfc  3 (l=1 m= 1)
     state # 173: atom  14 (Fe ), wfc  3 (l=1 m= 2)
     state # 174: atom  14 (Fe ), wfc  3 (l=1 m= 3)
     state # 175: atom  14 (Fe ), wfc  4 (l=1 m= 1)
     state # 176: atom  14 (Fe ), wfc  4 (l=1 m= 2)
     state # 177: atom  14 (Fe ), wfc  4 (l=1 m= 3)
     state # 178: atom  14 (Fe ), wfc  5 (l=2 m= 1)
     state # 179: atom  14 (Fe ), wfc  5 (l=2 m= 2)
     state # 180: atom  14 (Fe ), wfc  5 (l=2 m= 3)
     state # 181: atom  14 (Fe ), wfc  5 (l=2 m= 4)
     state # 182: atom  14 (Fe ), wfc  5 (l=2 m= 5)
     state # 183: atom  15 (Fe ), wfc  1 (l=0 m= 1)
     state # 184: atom  15 (Fe ), wfc  2 (l=0 m= 1)
     state # 185: atom  15 (Fe ), wfc  3 (l=1 m= 1)
     state # 186: atom  15 (Fe ), wfc  3 (l=1 m= 2)
     state # 187: atom  15 (Fe ), wfc  3 (l=1 m= 3)
     state # 188: atom  15 (Fe ), wfc  4 (l=1 m= 1)
     state # 189: atom  15 (Fe ), wfc  4 (l=1 m= 2)
     state # 190: atom  15 (Fe ), wfc  4 (l=1 m= 3)
     state # 191: atom  15 (Fe ), wfc  5 (l=2 m= 1)
     state # 192: atom  15 (Fe ), wfc  5 (l=2 m= 2)
     state # 193: atom  15 (Fe ), wfc  5 (l=2 m= 3)
     state # 194: atom  15 (Fe ), wfc  5 (l=2 m= 4)
     state # 195: atom  15 (Fe ), wfc  5 (l=2 m= 5)
     state # 196: atom  16 (Fe ), wfc  1 (l=0 m= 1)
     state # 197: atom  16 (Fe ), wfc  2 (l=0 m= 1)
     state # 198: atom  16 (Fe ), wfc  3 (l=1 m= 1)
     state # 199: atom  16 (Fe ), wfc  3 (l=1 m= 2)
     state # 200: atom  16 (Fe ), wfc  3 (l=1 m= 3)
     state # 201: atom  16 (Fe ), wfc  4 (l=1 m= 1)
     state # 202: atom  16 (Fe ), wfc  4 (l=1 m= 2)
     state # 203: atom  16 (Fe ), wfc  4 (l=1 m= 3)
     state # 204: atom  16 (Fe ), wfc  5 (l=2 m= 1)
     state # 205: atom  16 (Fe ), wfc  5 (l=2 m= 2)
     state # 206: atom  16 (Fe ), wfc  5 (l=2 m= 3)
     state # 207: atom  16 (Fe ), wfc  5 (l=2 m= 4)
     state # 208: atom  16 (Fe ), wfc  5 (l=2 m= 5)
     state # 209: atom  17 (Fe ), wfc  1 (l=0 m= 1)
     state # 210: atom  17 (Fe ), wfc  2 (l=0 m= 1)
     state # 211: atom  17 (Fe ), wfc  3 (l=1 m= 1)
     state # 212: atom  17 (Fe ), wfc  3 (l=1 m= 2)
     state # 213: atom  17 (Fe ), wfc  3 (l=1 m= 3)
     state # 214: atom  17 (Fe ), wfc  4 (l=1 m= 1)
     state # 215: atom  17 (Fe ), wfc  4 (l=1 m= 2)
     state # 216: atom  17 (Fe ), wfc  4 (l=1 m= 3)
     state # 217: atom  17 (Fe ), wfc  5 (l=2 m= 1)
     state # 218: atom  17 (Fe ), wfc  5 (l=2 m= 2)
     state # 219: atom  17 (Fe ), wfc  5 (l=2 m= 3)
     state # 220: atom  17 (Fe ), wfc  5 (l=2 m= 4)
     state # 221: atom  17 (Fe ), wfc  5 (l=2 m= 5)
     state # 222: atom  18 (Fe ), wfc  1 (l=0 m= 1)
     state # 223: atom  18 (Fe ), wfc  2 (l=0 m= 1)
     state # 224: atom  18 (Fe ), wfc  3 (l=1 m= 1)
     state # 225: atom  18 (Fe ), wfc  3 (l=1 m= 2)
     state # 226: atom  18 (Fe ), wfc  3 (l=1 m= 3)
     state # 227: atom  18 (Fe ), wfc  4 (l=1 m= 1)
     state # 228: atom  18 (Fe ), wfc  4 (l=1 m= 2)
     state # 229: atom  18 (Fe ), wfc  4 (l=1 m= 3)
     state # 230: atom  18 (Fe ), wfc  5 (l=2 m= 1)
     state # 231: atom  18 (Fe ), wfc  5 (l=2 m= 2)
     state # 232: atom  18 (Fe ), wfc  5 (l=2 m= 3)
     state # 233: atom  18 (Fe ), wfc  5 (l=2 m= 4)
     state # 234: atom  18 (Fe ), wfc  5 (l=2 m= 5)
     state # 235: atom  19 (Fe ), wfc  1 (l=0 m= 1)
     state # 236: atom  19 (Fe ), wfc  2 (l=0 m= 1)
     state # 237: atom  19 (Fe ), wfc  3 (l=1 m= 1)
     state # 238: atom  19 (Fe ), wfc  3 (l=1 m= 2)
     state # 239: atom  19 (Fe ), wfc  3 (l=1 m= 3)
     state # 240: atom  19 (Fe ), wfc  4 (l=1 m= 1)
     state # 241: atom  19 (Fe ), wfc  4 (l=1 m= 2)
     state # 242: atom  19 (Fe ), wfc  4 (l=1 m= 3)
     state # 243: atom  19 (Fe ), wfc  5 (l=2 m= 1)
     state # 244: atom  19 (Fe ), wfc  5 (l=2 m= 2)
     state # 245: atom  19 (Fe ), wfc  5 (l=2 m= 3)
     state # 246: atom  19 (Fe ), wfc  5 (l=2 m= 4)
     state # 247: atom  19 (Fe ), wfc  5 (l=2 m= 5)
     state # 248: atom  20 (Fe ), wfc  1 (l=0 m= 1)
     state # 249: atom  20 (Fe ), wfc  2 (l=0 m= 1)
     state # 250: atom  20 (Fe ), wfc  3 (l=1 m= 1)
     state # 251: atom  20 (Fe ), wfc  3 (l=1 m= 2)
     state # 252: atom  20 (Fe ), wfc  3 (l=1 m= 3)
     state # 253: atom  20 (Fe ), wfc  4 (l=1 m= 1)
     state # 254: atom  20 (Fe ), wfc  4 (l=1 m= 2)
     state # 255: atom  20 (Fe ), wfc  4 (l=1 m= 3)
     state # 256: atom  20 (Fe ), wfc  5 (l=2 m= 1)
     state # 257: atom  20 (Fe ), wfc  5 (l=2 m= 2)
     state # 258: atom  20 (Fe ), wfc  5 (l=2 m= 3)
     state # 259: atom  20 (Fe ), wfc  5 (l=2 m= 4)
     state # 260: atom  20 (Fe ), wfc  5 (l=2 m= 5)

 k =   0.0000000000  0.0000000000  0.0000000000
     e =   -81.54141 eV
     psi = 0.221*[#   1]+0.221*[#  14]+0.221*[#  27]+0.221*[#  40]+0.017*[#  58]+
          +0.017*[#  71]+0.017*[#  84]+0.017*[#  97]+0.003*[#  53]+0.003*[#  66]+
          +0.003*[#  79]+0.003*[#  92]+0.002*[#  54]+0.002*[#  67]+0.002*[#  80]+
          +0.002*[#  93]+0.002*[# 110]+0.002*[# 123]+0.002*[# 136]+0.002*[# 149]+
          +0.001*[#   2]+0.001*[#  15]+0.001*[#  28]+0.001*[#  41]+0.001*[# 106]+
          +0.001*[# 119]+0.001*[# 132]+0.001*[# 145]+
    |psi|^2 = 1.000
     e =   -81.54002 eV
     psi = 0.220*[# 209]+0.220*[# 222]+0.220*[# 235]+0.220*[# 248]+0.017*[# 162]+
          +0.017*[# 175]+0.017*[# 188]+0.017*[# 201]+0.003*[# 157]+0.003*[# 170]+
          +0.003*[# 183]+0.003*[# 196]+0.002*[# 110]+0.002*[# 123]+0.002*[# 136]+
          +0.002*[# 149]+0.002*[# 158]+0.002*[# 171]+0.002*[# 184]+0.002*[# 197]+
          +0.001*[# 210]+0.001*[# 223]+0.001*[# 236]+0.001*[# 249]+0.001*[# 106]+
          +0.001*[# 119]+0.001*[# 132]+0.001*[# 145]+
    |psi|^2 = 1.000
     e =   -81.49926 eV
     psi = 0.489*[#   1]+0.489*[#  40]+0.005*[#   2]+0.005*[#  41]+0.002*[#  60]+
          +0.002*[#  73]+0.001*[#  25]+0.001*[#  38]+
    |psi|^2 = 1.000
     e =   -81.49926 eV
     psi = 0.489*[#  14]+0.489*[#  27]+0.005*[#  15]+0.005*[#  28]+0.002*[#  86]+
          +0.002*[#  99]+0.001*[#  12]+0.001*[#  51]+
    |psi|^2 = 1.000
     e =   -81.49772 eV
     psi = 0.489*[# 222]+0.489*[# 235]+0.005*[# 223]+0.005*[# 236]+0.002*[# 190]+
          +0.002*[# 203]+0.001*[# 220]+0.001*[# 259]+
    |psi|^2 = 1.000
     e =   -81.49771 eV
     psi = 0.489*[# 209]+0.489*[# 248]+0.005*[# 210]+0.005*[# 249]+0.002*[# 164]+
          +0.002*[# 177]+0.001*[# 233]+0.001*[# 246]+
    |psi|^2 = 1.000
     e =   -81.47175 eV
     psi = 0.238*[#   1]+0.238*[#  14]+0.238*[#  27]+0.238*[#  40]+0.007*[#   2]+
          +0.007*[#  15]+0.007*[#  28]+0.007*[#  41]+0.003*[#  53]+0.003*[#  66]+
          +0.003*[#  79]+0.003*[#  92]+
    |psi|^2 = 1.000
     e =   -81.47028 eV
     psi = 0.238*[# 209]+0.238*[# 222]+0.238*[# 235]+0.238*[# 248]+0.007*[# 210]+
          +0.007*[# 223]+0.007*[# 236]+0.007*[# 249]+0.003*[# 157]+0.003*[# 170]+
          +0.003*[# 183]+0.003*[# 196]+
    |psi|^2 = 1.000
     e =   -81.40723 eV
     psi = 0.127*[#  53]+0.127*[#  66]+0.127*[#  79]+0.127*[#  92]+0.059*[# 157]+
          +0.059*[# 170]+0.059*[# 183]+0.059*[# 196]+0.030*[# 105]+0.030*[# 118]+
          +0.030*[# 131]+0.030*[# 144]+0.007*[#   6]+0.007*[#  19]+0.007*[#  32]+
          +0.007*[#  45]+0.005*[# 162]+0.005*[# 175]+0.005*[# 188]+0.005*[# 201]+
          +0.004*[#  58]+0.004*[#  71]+0.004*[#  84]+0.004*[#  97]+0.004*[# 214]+
          +0.004*[# 227]+0.004*[# 240]+0.004*[# 253]+0.003*[#   1]+0.003*[#  14]+
          +0.003*[#  27]+0.003*[#  40]+0.003*[#   2]+0.003*[#  15]+0.003*[#  28]+
          +0.003*[#  41]+0.002*[# 106]+0.002*[# 119]+0.002*[# 132]+0.002*[# 145]+
          +0.002*[# 210]+0.002*[# 223]+0.002*[# 236]+0.002*[# 249]+0.001*[# 158]+
          +0.001*[# 171]+0.001*[# 184]+0.001*[# 197]+0.001*[# 209]+0.001*[# 222]+
          +0.001*[# 235]+0.001*[# 248]+
    |psi|^2 = 1.000
     e =   -81.39371 eV
     psi = 0.133*[# 157]+0.133*[# 170]+0.133*[# 183]+0.133*[# 196]+0.072*[#  53]+
          +0.072*[#  66]+0.072*[#  79]+0.072*[#  92]+0.026*[# 110]+0.026*[# 123]+
          +0.026*[# 136]+0.026*[# 149]+0.006*[# 214]+0.006*[# 227]+0.006*[# 240]+
          +0.006*[# 253]+0.004*[# 209]+0.004*[# 222]+0.004*[# 235]+0.004*[# 248]+
          +0.002*[#   6]+0.002*[#  19]+0.002*[#  32]+0.002*[#  45]+0.002*[# 105]+
          +0.002*[# 118]+0.002*[# 131]+0.002*[# 144]+0.002*[#   1]+0.002*[#  14]+
          +0.002*[#  27]+0.002*[#  40]+
    |psi|^2 = 1.000
     e =   -81.36042 eV
     psi = 0.484*[#  79]+0.484*[#  92]+0.006*[#  80]+0.006*[#  93]+0.002*[# 125]+
          +0.002*[# 138]+0.002*[#  21]+0.002*[#  34]+0.001*[#  64]+0.001*[#  77]+
    |psi|^2 = 1.000
     e =   -81.36039 eV
     psi = 0.484*[#  53]+0.484*[#  66]+0.006*[#  54]+0.006*[#  67]+0.002*[# 112]+
          +0.002*[# 151]+0.002*[#   8]+0.002*[#  47]+0.001*[#  90]+0.001*[# 103]+
    |psi|^2 = 1.000
     e =   -81.35416 eV
     psi = 0.484*[# 157]+0.484*[# 170]+0.006*[# 158]+0.006*[# 171]+0.002*[# 112]+
          +0.002*[# 151]+0.002*[# 216]+0.002*[# 255]+0.001*[# 194]+0.001*[# 207]+
    |psi|^2 = 1.000
     e =   -81.35415 eV
     psi = 0.484*[# 183]+0.484*[# 196]+0.006*[# 184]+0.006*[# 197]+0.002*[# 125]+
          +0.002*[# 138]+0.002*[# 229]+0.002*[# 242]+0.001*[# 168]+0.001*[# 181]+
    |psi|^2 = 1.000
     e =   -81.33500 eV
     psi = 0.173*[#  53]+0.173*[#  66]+0.173*[#  79]+0.173*[#  92]+0.042*[# 183]+
          +0.042*[# 196]+0.042*[# 157]+0.042*[# 170]+0.024*[# 105]+0.024*[# 144]+
          +0.024*[# 118]+0.023*[# 131]+0.005*[#  54]+0.005*[#  67]+0.005*[#  80]+
          +0.005*[#  93]+0.002*[#   1]+0.002*[#  14]+0.002*[#  27]+0.002*[#  40]+
          +0.001*[# 158]+0.001*[# 171]+0.001*[# 184]+0.001*[# 197]+
    |psi|^2 = 1.000
     e =   -81.32855 eV
     psi = 0.185*[# 118]+0.185*[# 105]+0.185*[# 131]+0.185*[# 144]+0.024*[# 157]+
          +0.024*[# 170]+0.024*[# 183]+0.024*[# 196]+0.017*[#  53]+0.017*[#  66]+
          +0.017*[#  79]+0.017*[#  92]+0.009*[# 162]+0.009*[# 175]+0.009*[# 188]+
          +0.009*[# 201]+0.009*[#  58]+0.009*[#  71]+0.009*[#  84]+0.009*[#  97]+
          +0.001*[# 158]+0.001*[# 171]+0.001*[# 184]+0.001*[# 197]+
    |psi|^2 = 1.000
     e =   -81.32588 eV
     psi = 0.178*[# 157]+0.178*[# 170]+0.178*[# 183]+0.178*[# 196]+0.053*[#  53]+
          +0.053*[#  66]+0.053*[#  79]+0.053*[#  92]+0.006*[# 158]+0.006*[# 171]+
          +0.006*[# 184]+0.006*[# 197]+0.004*[# 105]+0.004*[# 118]+0.004*[# 131]+
          +0.004*[# 144]+0.002*[#  54]+0.002*[#  67]+0.002*[#  80]+0.002*[#  93]+
          +0.002*[# 110]+0.002*[# 123]+0.002*[# 136]+0.002*[# 149]+0.002*[# 209]+
          +0.002*[# 222]+0.002*[# 235]+0.002*[# 248]+
    |psi|^2 = 1.000
     e =   -81.30204 eV
     psi = 0.484*[# 105]+0.484*[# 144]+0.006*[# 106]+0.006*[# 145]+0.002*[# 164]+
          +0.002*[# 177]+0.002*[#  60]+0.002*[#  73]+0.001*[# 129]+0.001*[# 142]+
    |psi|^2 = 1.000
     e =   -81.30201 eV
     psi = 0.484*[# 118]+0.484*[# 131]+0.006*[# 119]+0.006*[# 132]+0.002*[# 190]+
          +0.002*[# 203]+0.002*[#  86]+0.002*[#  99]+0.001*[# 116]+0.001*[# 155]+
    |psi|^2 = 1.000
     e =   -81.26542 eV
     psi = 0.210*[# 131]+0.210*[# 105]+0.210*[# 118]+0.210*[# 144]+0.015*[# 157]+
          +0.015*[# 170]+0.015*[# 183]+0.015*[# 196]+0.010*[#  53]+0.010*[#  66]+
          +0.010*[#  79]+0.010*[#  92]+0.009*[# 106]+0.009*[# 119]+0.009*[# 132]+
          +0.009*[# 145]+0.002*[# 158]+0.002*[# 171]+0.002*[# 184]+0.002*[# 197]+
          +0.001*[#  54]+0.001*[#  67]+0.001*[#  80]+0.001*[#  93]+
    |psi|^2 = 1.000
     e =   -47.75322 eV
     psi = 0.120*[# 211]+0.120*[# 224]+0.120*[# 237]+0.120*[# 250]+0.088*[#   3]+
          +0.088*[#  16]+0.088*[#  29]+0.088*[#  42]+0.018*[# 159]+0.018*[# 172]+
          +0.018*[# 185]+0.018*[# 198]+0.014*[#  55]+0.014*[#  68]+0.014*[#  81]+
          +0.014*[#  94]+0.005*[# 107]+0.005*[# 120]+0.005*[# 133]+0.005*[# 146]+
          +0.001*[# 214]+0.001*[# 227]+0.001*[# 240]+0.001*[# 253]+
    |psi|^2 = 1.000
     e =   -47.74635 eV
     psi = 0.126*[#   3]+0.126*[#  16]+0.126*[#  29]+0.126*[#  42]+0.094*[# 211]+
          +0.094*[# 224]+0.094*[# 237]+0.094*[# 250]+0.014*[#  55]+0.014*[#  68]+
          +0.014*[#  81]+0.014*[#  94]+0.010*[# 159]+0.010*[# 172]+0.010*[# 185]+
          +0.010*[# 198]+0.001*[#   6]+0.001*[#  19]+0.001*[#  32]+0.001*[#  45]+
          +0.001*[# 214]+0.001*[# 227]+0.001*[# 240]+0.001*[# 253]+
    |psi|^2 = 1.000
     e =   -47.71767 eV
     psi = 0.242*[# 224]+0.242*[# 237]+0.129*[#  16]+0.129*[#  29]+0.034*[# 187]+
          +0.034*[# 200]+0.019*[#  83]+0.019*[#  96]+0.017*[# 186]+0.017*[# 199]+
          +0.014*[# 160]+0.014*[# 173]+0.010*[#  82]+0.010*[#  95]+0.008*[# 120]+
          +0.008*[# 133]+0.008*[#  56]+0.008*[#  69]+0.007*[# 161]+0.007*[# 174]+
          +0.004*[#  57]+0.004*[#  70]+0.002*[# 190]+0.002*[# 203]+
    |psi|^2 = 1.000
     e =   -47.71767 eV
     psi = 0.242*[# 211]+0.242*[# 250]+0.129*[#   3]+0.129*[#  42]+0.034*[# 161]+
          +0.034*[# 174]+0.019*[#  57]+0.019*[#  70]+0.017*[# 160]+0.017*[# 173]+
          +0.014*[# 186]+0.014*[# 199]+0.010*[#  56]+0.010*[#  69]+0.008*[#  82]+
          +0.008*[#  95]+0.008*[# 107]+0.008*[# 146]+0.007*[# 187]+0.007*[# 200]+
          +0.004*[#  83]+0.004*[#  96]+0.002*[# 164]+0.002*[# 177]+
    |psi|^2 = 1.000
     e =   -47.71153 eV
     psi = 0.260*[#  16]+0.260*[#  29]+0.144*[# 224]+0.144*[# 237]+0.028*[#  83]+
          +0.028*[#  96]+0.014*[# 187]+0.014*[# 200]+0.013*[#  82]+0.013*[#  95]+
          +0.012*[#  56]+0.012*[#  69]+0.007*[# 186]+0.007*[# 199]+0.006*[#  57]+
          +0.006*[#  70]+0.006*[# 160]+0.006*[# 173]+0.003*[# 161]+0.003*[# 174]+
          +0.002*[#  86]+0.002*[#  99]+
    |psi|^2 = 1.000
     e =   -47.71153 eV
     psi = 0.260*[#   3]+0.260*[#  42]+0.144*[# 211]+0.144*[# 250]+0.027*[#  57]+
          +0.027*[#  70]+0.014*[#  56]+0.014*[#  69]+0.014*[# 161]+0.014*[# 174]+
          +0.012*[#  82]+0.012*[#  95]+0.007*[# 160]+0.007*[# 173]+0.006*[# 186]+
          +0.006*[# 199]+0.006*[#  83]+0.006*[#  96]+0.003*[# 187]+0.003*[# 200]+
          +0.002*[#  60]+0.002*[#  73]+
    |psi|^2 = 1.000
     e =   -47.67968 eV
     psi = 0.067*[# 212]+0.067*[# 225]+0.067*[# 238]+0.067*[# 251]+0.066*[#   4]+
          +0.066*[#  17]+0.066*[#  30]+0.066*[#  43]+0.033*[# 213]+0.033*[# 226]+
          +0.033*[# 239]+0.033*[# 252]+0.033*[#   5]+0.033*[#  18]+0.033*[#  31]+
          +0.033*[#  44]+0.015*[# 160]+0.015*[# 173]+0.015*[# 186]+0.015*[# 199]+
          +0.015*[#  56]+0.015*[#  69]+0.015*[#  82]+0.015*[#  95]+0.007*[# 161]+
          +0.007*[# 174]+0.007*[# 187]+0.007*[# 200]+0.007*[#  57]+0.007*[#  70]+
          +0.007*[#  83]+0.007*[#  96]+0.003*[# 108]+0.003*[# 121]+0.003*[# 134]+
          +0.003*[# 147]+0.001*[# 109]+0.001*[# 122]+0.001*[# 135]+0.001*[# 148]+
    |psi|^2 = 1.000
     e =   -47.67764 eV
     psi = 0.072*[#   4]+0.072*[#  17]+0.072*[#  30]+0.072*[#  43]+0.070*[# 212]+
          +0.070*[# 225]+0.070*[# 238]+0.070*[# 251]+0.036*[#   5]+0.036*[#  18]+
          +0.036*[#  31]+0.036*[#  44]+0.035*[# 239]+0.035*[# 252]+0.035*[# 213]+
          +0.035*[# 226]+0.012*[#  56]+0.012*[#  69]+0.012*[#  82]+0.012*[#  95]+
          +0.012*[# 160]+0.012*[# 173]+0.012*[# 186]+0.012*[# 199]+0.006*[#  57]+
          +0.006*[#  70]+0.006*[#  83]+0.006*[#  96]+0.006*[# 161]+0.006*[# 174]+
          +0.006*[# 187]+0.006*[# 200]+
    |psi|^2 = 1.000
     e =   -47.67744 eV
     psi = 0.111*[#  31]+0.111*[#  18]+0.072*[#  43]+0.071*[#   4]+0.064*[# 226]+
          +0.064*[# 239]+0.058*[#  17]+0.058*[#  30]+0.042*[# 212]+0.041*[# 251]+
          +0.034*[# 238]+0.034*[# 225]+0.033*[#  44]+0.033*[#   5]+0.026*[#  81]+
          +0.026*[#  94]+0.019*[# 213]+0.019*[# 252]+0.017*[# 185]+0.017*[# 198]+
          +0.007*[# 122]+0.007*[# 135]+0.004*[# 121]+0.004*[# 134]+0.003*[# 108]+
          +0.003*[# 147]+0.002*[#  21]+0.002*[#  34]+0.001*[# 109]+0.001*[# 148]+
          +0.001*[# 229]+0.001*[# 242]+0.001*[#  20]+0.001*[#  33]+0.001*[#  84]+
          +0.001*[#  97]+
    |psi|^2 = 1.000
     e =   -47.67744 eV
     psi = 0.115*[#  44]+0.115*[#   5]+0.068*[#  30]+0.068*[#  17]+0.066*[# 213]+
          +0.066*[# 252]+0.055*[#   4]+0.055*[#  43]+0.040*[# 225]+0.039*[# 238]+
          +0.037*[#  18]+0.037*[#  31]+0.032*[# 251]+0.032*[# 212]+0.026*[#  55]+
          +0.026*[#  68]+0.021*[# 226]+0.021*[# 239]+0.017*[# 159]+0.017*[# 172]+
          +0.007*[# 109]+0.007*[# 148]+0.003*[# 108]+0.003*[# 147]+0.003*[# 121]+
          +0.003*[# 134]+0.002*[#   8]+0.002*[#  47]+0.001*[# 122]+0.001*[# 135]+
          +0.001*[# 216]+0.001*[# 255]+
    |psi|^2 = 1.000
     e =   -47.67568 eV
     psi = 0.137*[# 211]+0.137*[# 224]+0.137*[# 237]+0.137*[# 250]+0.091*[#   3]+
          +0.091*[#  16]+0.091*[#  29]+0.091*[#  42]+0.011*[# 159]+0.011*[# 172]+
          +0.011*[# 185]+0.011*[# 198]+0.007*[#  55]+0.007*[#  68]+0.007*[#  81]+
          +0.007*[#  94]+0.002*[# 107]+0.002*[# 120]+0.002*[# 133]+0.002*[# 146]+
    |psi|^2 = 1.000
     e =   -47.67357 eV
     psi = 0.140*[#   3]+0.140*[#  16]+0.140*[#  29]+0.140*[#  42]+0.093*[# 211]+
          +0.093*[# 224]+0.093*[# 237]+0.093*[# 250]+0.009*[#  55]+0.009*[#  68]+
          +0.009*[#  81]+0.009*[#  94]+0.006*[# 159]+0.006*[# 172]+0.006*[# 185]+
          +0.006*[# 198]+
    |psi|^2 = 1.000
     e =   -47.67282 eV
     psi = 0.115*[# 226]+0.115*[# 239]+0.076*[# 212]+0.076*[# 251]+0.070*[#  18]+
          +0.070*[#  31]+0.060*[# 225]+0.060*[# 238]+0.046*[#   4]+0.046*[#  43]+
          +0.037*[#  17]+0.037*[#  30]+0.035*[# 213]+0.035*[# 252]+0.021*[#   5]+
          +0.021*[#  44]+0.020*[# 185]+0.020*[# 198]+0.010*[#  81]+0.010*[#  94]+
          +0.002*[# 229]+0.002*[# 242]+0.001*[#  21]+0.001*[#  34]+0.001*[# 228]+
          +0.001*[# 241]+
    |psi|^2 = 1.000
     e =   -47.67282 eV
     psi = 0.118*[# 213]+0.118*[# 252]+0.073*[# 225]+0.073*[# 238]+0.072*[#   5]+
          +0.072*[#  44]+0.057*[# 212]+0.057*[# 251]+0.044*[#  17]+0.044*[#  30]+
          +0.039*[# 226]+0.039*[# 239]+0.034*[#   4]+0.034*[#  43]+0.024*[#  18]+
          +0.024*[#  31]+0.020*[# 159]+0.020*[# 172]+0.010*[#  55]+0.010*[#  68]+
          +0.002*[# 216]+0.002*[# 255]+0.001*[#   8]+0.001*[#  47]+0.001*[# 215]+
          +0.001*[# 254]+
    |psi|^2 = 1.000
     e =   -47.61293 eV
     psi = 0.055*[#  56]+0.055*[#  69]+0.055*[#  82]+0.055*[#  95]+0.046*[# 160]+
          +0.046*[# 173]+0.046*[# 186]+0.046*[# 199]+0.033*[# 108]+0.033*[# 121]+
          +0.033*[# 134]+0.033*[# 147]+0.027*[#  57]+0.027*[#  70]+0.027*[#  83]+
          +0.027*[#  96]+0.023*[# 161]+0.023*[# 174]+0.023*[# 187]+0.023*[# 200]+
          +0.017*[#   4]+0.017*[#  17]+0.017*[#  30]+0.017*[#  43]+0.016*[# 109]+
          +0.016*[# 122]+0.016*[# 135]+0.016*[# 148]+0.015*[# 212]+0.015*[# 225]+
          +0.015*[# 238]+0.015*[# 251]+0.008*[#   5]+0.008*[#  18]+0.008*[#  31]+
          +0.008*[#  44]+0.008*[# 213]+0.008*[# 226]+0.008*[# 239]+0.008*[# 252]+
    |psi|^2 = 1.000
     e =   -47.59310 eV
     psi = 0.073*[# 160]+0.073*[# 173]+0.073*[# 186]+0.073*[# 199]+0.069*[#  56]+
          +0.069*[#  69]+0.069*[#  82]+0.069*[#  95]+0.037*[# 161]+0.037*[# 174]+
          +0.037*[# 187]+0.037*[# 200]+0.035*[#  57]+0.035*[#  70]+0.035*[#  83]+
          +0.035*[#  96]+0.013*[# 212]+0.013*[# 225]+0.013*[# 238]+0.013*[# 251]+
          +0.011*[#   4]+0.011*[#  17]+0.011*[#  30]+0.011*[#  43]+0.006*[# 213]+
          +0.006*[# 226]+0.006*[# 239]+0.006*[# 252]+0.006*[#   5]+0.006*[#  18]+
          +0.006*[#  31]+0.006*[#  44]+
    |psi|^2 = 1.000
     e =   -47.57169 eV
     psi = 0.061*[#   3]+0.061*[#  42]+0.058*[# 211]+0.058*[# 250]+0.058*[#  57]+
          +0.058*[#  70]+0.055*[# 107]+0.055*[# 146]+0.054*[#  82]+0.054*[#  95]+
          +0.051*[# 161]+0.051*[# 174]+0.047*[# 186]+0.047*[# 199]+0.028*[#  83]+
          +0.028*[#  96]+0.028*[#  56]+0.028*[#  69]+0.025*[# 160]+0.025*[# 173]+
          +0.025*[# 187]+0.025*[# 200]+0.002*[# 110]+0.002*[# 149]+0.002*[#   6]+
          +0.002*[#  45]+0.001*[# 214]+0.001*[# 253]+
    |psi|^2 = 1.000
     e =   -47.57169 eV
     psi = 0.061*[#  16]+0.061*[#  29]+0.058*[# 224]+0.058*[# 237]+0.056*[#  83]+
          +0.056*[#  96]+0.056*[#  56]+0.056*[#  69]+0.055*[# 120]+0.055*[# 133]+
          +0.050*[# 187]+0.050*[# 200]+0.049*[# 160]+0.049*[# 173]+0.029*[#  82]+
          +0.029*[#  95]+0.027*[#  57]+0.027*[#  70]+0.026*[# 186]+0.026*[# 199]+
          +0.023*[# 161]+0.023*[# 174]+0.002*[# 123]+0.002*[# 136]+0.002*[#  19]+
          +0.002*[#  32]+0.001*[# 227]+0.001*[# 240]+
    |psi|^2 = 1.000
     e =   -47.56118 eV
     psi = 0.116*[#   5]+0.116*[#  18]+0.116*[#  31]+0.116*[#  44]+0.058*[#   4]+
          +0.058*[#  17]+0.058*[#  30]+0.058*[#  43]+0.026*[# 213]+0.026*[# 226]+
          +0.026*[# 239]+0.026*[# 252]+0.017*[#  57]+0.017*[#  70]+0.017*[#  83]+
          +0.017*[#  96]+0.013*[# 212]+0.013*[# 225]+0.013*[# 238]+0.013*[# 251]+
          +0.008*[#  56]+0.008*[#  69]+0.008*[#  82]+0.008*[#  95]+0.005*[# 161]+
          +0.005*[# 174]+0.005*[# 187]+0.005*[# 200]+0.003*[# 160]+0.003*[# 173]+
          +0.003*[# 186]+0.003*[# 199]+0.002*[# 109]+0.002*[# 122]+0.002*[# 135]+
          +0.002*[# 148]+0.001*[# 108]+0.001*[# 121]+0.001*[# 134]+0.001*[# 147]+
    |psi|^2 = 1.000
     e =   -47.56003 eV
     psi = 0.147*[# 109]+0.147*[# 148]+0.092*[# 121]+0.092*[# 134]+0.073*[# 108]+
          +0.073*[# 147]+0.046*[# 122]+0.046*[# 135]+0.043*[# 159]+0.043*[# 172]+
          +0.042*[#  55]+0.042*[#  68]+0.010*[# 225]+0.010*[# 238]+0.009*[#  17]+
          +0.009*[#  30]+0.006*[# 213]+0.006*[# 252]+0.005*[# 226]+0.005*[# 239]+
          +0.005*[#   5]+0.005*[#  44]+0.005*[#  18]+0.005*[#  31]+0.004*[# 112]+
          +0.004*[# 151]+0.003*[# 212]+0.003*[# 251]+0.002*[#   4]+0.002*[#  43]+
          +0.002*[# 111]+0.002*[# 150]+0.002*[# 124]+0.002*[# 137]+
    |psi|^2 = 1.000
     e =   -47.56002 eV
     psi = 0.146*[# 122]+0.146*[# 135]+0.092*[# 108]+0.092*[# 147]+0.074*[# 121]+
          +0.074*[# 134]+0.046*[# 109]+0.046*[# 148]+0.043*[# 185]+0.043*[# 198]+
          +0.042*[#  81]+0.042*[#  94]+0.010*[# 212]+0.010*[# 251]+0.009*[#   4]+
          +0.009*[#  43]+0.005*[# 226]+0.006*[# 239]+0.005*[# 213]+0.005*[# 252]+
          +0.005*[#  18]+0.005*[#  31]+0.005*[#   5]+0.005*[#  44]+0.004*[# 125]+
          +0.004*[# 138]+0.003*[# 225]+0.003*[# 238]+0.002*[#  17]+0.002*[#  30]+
          +0.002*[# 124]+0.002*[# 137]+0.002*[# 111]+0.002*[# 150]+
    |psi|^2 = 1.000
     e =   -47.55816 eV
     psi = 0.117*[# 213]+0.117*[# 226]+0.117*[# 239]+0.117*[# 252]+0.059*[# 212]+
          +0.059*[# 225]+0.059*[# 238]+0.058*[# 251]+0.029*[#   5]+0.029*[#  18]+
          +0.029*[#  31]+0.029*[#  44]+0.016*[# 161]+0.016*[# 174]+0.016*[# 187]+
          +0.016*[# 200]+0.015*[#   4]+0.015*[#  17]+0.015*[#  30]+0.015*[#  43]+
          +0.008*[# 160]+0.008*[# 173]+0.008*[# 186]+0.008*[# 199]+0.003*[#  57]+
          +0.003*[#  70]+0.003*[#  83]+0.003*[#  96]+0.001*[#  56]+0.001*[#  69]+
          +0.001*[#  82]+0.001*[#  95]+
    |psi|^2 = 1.000
     e =   -47.54273 eV
     psi = 0.074*[# 186]+0.074*[# 199]+0.071*[#  82]+0.071*[#  95]+0.065*[# 161]+
          +0.065*[# 174]+0.060*[#  57]+0.060*[#  70]+0.046*[# 211]+0.046*[# 250]+
          +0.041*[# 187]+0.041*[# 200]+0.040*[#   3]+0.040*[#  42]+0.039*[#  83]+
          +0.039*[#  96]+0.029*[# 160]+0.029*[# 173]+0.026*[#  56]+0.026*[#  69]+
          +0.002*[# 214]+0.002*[# 253]+0.002*[#   6]+0.002*[#  45]+0.001*[# 106]+
          +0.001*[# 145]+0.001*[#  60]+0.001*[#  73]+0.001*[# 164]+0.001*[# 177]+
    |psi|^2 = 1.000
     e =   -47.54273 eV
     psi = 0.079*[# 160]+0.079*[# 173]+0.075*[#  56]+0.075*[#  69]+0.060*[# 187]+
          +0.060*[# 200]+0.055*[#  83]+0.055*[#  96]+0.046*[# 224]+0.046*[# 237]+
          +0.040*[#  16]+0.040*[#  29]+0.036*[# 161]+0.036*[# 174]+0.034*[#  57]+
          +0.034*[#  70]+0.034*[# 186]+0.034*[# 199]+0.031*[#  82]+0.031*[#  95]+
          +0.002*[# 227]+0.002*[# 240]+0.002*[#  19]+0.002*[#  32]+0.001*[# 119]+
          +0.001*[# 132]+0.001*[#  86]+0.001*[#  99]+0.001*[# 190]+0.001*[# 203]+
    |psi|^2 = 1.000
     e =   -47.52728 eV
     psi = 0.106*[# 107]+0.106*[# 120]+0.106*[# 133]+0.106*[# 146]+0.053*[#  55]+
          +0.053*[#  68]+0.053*[#  81]+0.053*[#  94]+0.050*[# 159]+0.050*[# 172]+
          +0.050*[# 185]+0.050*[# 198]+0.016*[#   3]+0.016*[#  16]+0.016*[#  29]+
          +0.016*[#  42]+0.016*[# 211]+0.016*[# 224]+0.016*[# 237]+0.016*[# 250]+
          +0.003*[# 110]+0.003*[# 123]+0.003*[# 136]+0.003*[# 149]+
    |psi|^2 = 1.000
     e =   -47.51662 eV
     psi = 0.130*[# 108]+0.130*[# 121]+0.130*[# 134]+0.130*[# 147]+0.065*[# 109]+
          +0.065*[# 122]+0.065*[# 135]+0.065*[# 148]+0.020*[# 160]+0.020*[# 173]+
          +0.020*[# 186]+0.020*[# 199]+0.015*[#  56]+0.015*[#  69]+0.015*[#  82]+
          +0.015*[#  95]+0.010*[# 161]+0.010*[# 174]+0.010*[# 187]+0.010*[# 200]+
          +0.008*[#  57]+0.008*[#  70]+0.008*[#  83]+0.008*[#  96]+
    |psi|^2 = 1.000
     e =   -47.46521 eV
     psi = 0.053*[# 109]+0.053*[# 122]+0.053*[# 135]+0.053*[# 148]+0.046*[#  57]+
          +0.046*[#  70]+0.046*[#  83]+0.046*[#  96]+0.044*[# 161]+0.044*[# 174]+
          +0.044*[# 187]+0.044*[# 200]+0.027*[# 108]+0.027*[# 121]+0.027*[# 134]+
          +0.027*[# 147]+0.023*[#  56]+0.023*[#  69]+0.023*[#  82]+0.023*[#  95]+
          +0.022*[# 160]+0.022*[# 173]+0.022*[# 186]+0.022*[# 199]+0.012*[# 213]+
          +0.012*[# 226]+0.012*[# 239]+0.012*[# 252]+0.011*[#   5]+0.011*[#  18]+
          +0.011*[#  31]+0.011*[#  44]+0.006*[# 212]+0.006*[# 225]+0.006*[# 238]+
          +0.006*[# 251]+0.005*[#   4]+0.005*[#  17]+0.005*[#  30]+0.005*[#  43]+
    |psi|^2 = 1.000
     e =   -47.44371 eV
     psi = 0.102*[# 107]+0.102*[# 120]+0.102*[# 133]+0.102*[# 146]+0.069*[#  55]+
          +0.069*[#  68]+0.069*[#  81]+0.069*[#  94]+0.061*[# 159]+0.061*[# 172]+
          +0.061*[# 185]+0.061*[# 198]+0.008*[#   3]+0.008*[#  16]+0.008*[#  29]+
          +0.008*[#  42]+0.008*[# 211]+0.008*[# 224]+0.008*[# 237]+0.008*[# 250]+
    |psi|^2 = 1.000
     e =   -47.42732 eV
     psi = 0.077*[#  57]+0.077*[#  70]+0.077*[#  83]+0.077*[#  96]+0.070*[# 161]+
          +0.070*[# 174]+0.070*[# 187]+0.070*[# 200]+0.038*[#  56]+0.038*[#  69]+
          +0.039*[#  82]+0.039*[#  95]+0.035*[# 160]+0.035*[# 173]+0.035*[# 186]+
          +0.035*[# 199]+0.009*[# 213]+0.009*[# 226]+0.009*[# 239]+0.009*[# 252]+
          +0.008*[#   5]+0.008*[#  18]+0.008*[#  31]+0.008*[#  44]+0.004*[# 212]+
          +0.004*[# 225]+0.004*[# 238]+0.004*[# 251]+0.004*[#   4]+0.004*[#  17]+
          +0.004*[#  30]+0.004*[#  43]+
    |psi|^2 = 1.000
     e =   -47.40889 eV
     psi = 0.132*[#   5]+0.132*[#  18]+0.132*[#  31]+0.132*[#  44]+0.066*[#   4]+
          +0.066*[#  17]+0.066*[#  30]+0.066*[#  43]+0.014*[#  57]+0.014*[#  70]+
          +0.014*[#  83]+0.014*[#  96]+0.012*[# 213]+0.012*[# 226]+0.012*[# 239]+
          +0.012*[# 252]+0.007*[#  56]+0.007*[#  69]+0.007*[#  82]+0.007*[#  95]+
          +0.006*[# 212]+0.006*[# 225]+0.006*[# 238]+0.006*[# 251]+0.004*[#   8]+
          +0.004*[#  21]+0.004*[#  34]+0.004*[#  47]+0.002*[#   7]+0.002*[#  20]+
          +0.002*[#  33]+0.002*[#  46]+0.002*[# 161]+0.002*[# 174]+0.002*[# 187]+
          +0.002*[# 200]+0.001*[# 109]+0.001*[# 122]+0.001*[# 135]+0.001*[# 148]+
    |psi|^2 = 1.000
     e =   -47.40648 eV
     psi = 0.186*[#  81]+0.186*[#  94]+0.119*[# 185]+0.119*[# 198]+0.066*[#   4]+
          +0.066*[#  43]+0.043*[# 212]+0.043*[# 251]+0.033*[#   5]+0.033*[#  44]+
          +0.022*[# 213]+0.022*[# 252]+0.009*[#  18]+0.009*[#  31]+0.005*[# 226]+
          +0.005*[# 239]+0.004*[#  17]+0.004*[#  30]+0.003*[# 225]+0.003*[# 238]+
          +0.002*[#   7]+0.002*[#  46]+0.001*[# 215]+0.001*[# 254]+0.001*[#   8]+
          +0.001*[#  47]+0.001*[#  84]+0.001*[#  97]+
    |psi|^2 = 1.000
     e =   -47.40647 eV
     psi = 0.186*[#  55]+0.186*[#  68]+0.120*[# 159]+0.120*[# 172]+0.066*[#  17]+
          +0.066*[#  30]+0.043*[# 225]+0.043*[# 238]+0.033*[#  18]+0.033*[#  31]+
          +0.022*[# 226]+0.022*[# 239]+0.009*[#   5]+0.009*[#  44]+0.005*[# 213]+
          +0.005*[# 252]+0.004*[#   4]+0.004*[#  43]+0.003*[# 212]+0.003*[# 251]+
          +0.002*[#  20]+0.002*[#  33]+0.001*[# 228]+0.001*[# 241]+0.001*[#  21]+
          +0.001*[#  34]+0.001*[#  58]+0.001*[#  71]+
    |psi|^2 = 1.000
     e =   -47.40620 eV
     psi = 0.132*[# 213]+0.132*[# 226]+0.132*[# 239]+0.132*[# 252]+0.066*[# 212]+
          +0.066*[# 225]+0.066*[# 238]+0.066*[# 251]+0.015*[# 161]+0.015*[# 174]+
          +0.015*[# 187]+0.015*[# 200]+0.013*[#   5]+0.013*[#  18]+0.013*[#  31]+
          +0.013*[#  44]+0.007*[# 160]+0.007*[# 173]+0.007*[# 186]+0.007*[# 199]+
          +0.007*[#   4]+0.007*[#  17]+0.007*[#  30]+0.007*[#  43]+0.004*[# 216]+
          +0.004*[# 229]+0.004*[# 242]+0.004*[# 255]+0.002*[# 215]+0.002*[# 228]+
          +0.002*[# 241]+0.002*[# 254]+
    |psi|^2 = 1.000
     e =   -47.39919 eV
     psi = 0.115*[#  55]+0.115*[#  68]+0.115*[#  81]+0.115*[#  94]+0.104*[# 159]+
          +0.104*[# 172]+0.104*[# 185]+0.104*[# 198]+0.013*[#   3]+0.013*[#  16]+
          +0.013*[#  29]+0.013*[#  42]+0.012*[# 211]+0.012*[# 224]+0.012*[# 237]+
          +0.012*[# 250]+0.002*[# 106]+0.002*[# 119]+0.002*[# 132]+0.002*[# 145]+
    |psi|^2 = 1.000
     e =   -47.38226 eV
     psi = 0.088*[# 212]+0.088*[# 251]+0.079*[# 185]+0.079*[# 198]+0.052*[#   4]+
          +0.052*[#  43]+0.045*[# 108]+0.045*[# 147]+0.045*[#  81]+0.045*[#  94]+
          +0.044*[# 213]+0.044*[# 252]+0.031*[# 226]+0.031*[# 239]+0.026*[#   5]+
          +0.026*[#  44]+0.022*[# 109]+0.022*[# 148]+0.019*[#  18]+0.019*[#  31]+
          +0.015*[# 225]+0.015*[# 238]+0.009*[#  17]+0.009*[#  30]+0.007*[# 122]+
          +0.007*[# 135]+0.004*[# 121]+0.004*[# 134]+0.004*[# 215]+0.004*[# 254]+
          +0.002*[#   7]+0.002*[#  46]+0.002*[# 216]+0.002*[# 255]+0.002*[# 188]+
          +0.002*[# 201]+0.001*[#  84]+0.001*[#  97]+0.001*[#   8]+0.001*[#  47]+
    |psi|^2 = 1.000
     e =   -47.38225 eV
     psi = 0.088*[# 225]+0.088*[# 238]+0.079*[# 159]+0.079*[# 172]+0.052*[#  17]+
          +0.052*[#  30]+0.045*[# 121]+0.045*[# 134]+0.045*[#  55]+0.045*[#  68]+
          +0.044*[# 226]+0.044*[# 239]+0.031*[# 213]+0.031*[# 252]+0.026*[#  18]+
          +0.026*[#  31]+0.022*[# 122]+0.022*[# 135]+0.019*[#   5]+0.019*[#  44]+
          +0.015*[# 212]+0.015*[# 251]+0.009*[#   4]+0.009*[#  43]+0.007*[# 109]+
          +0.007*[# 148]+0.004*[# 108]+0.004*[# 147]+0.004*[# 228]+0.004*[# 241]+
          +0.002*[#  20]+0.002*[#  33]+0.002*[# 229]+0.002*[# 242]+0.002*[# 162]+
          +0.002*[# 175]+0.001*[#  58]+0.001*[#  71]+0.001*[#  21]+0.001*[#  34]+
    |psi|^2 = 1.000
     e =   -47.35628 eV
     psi = 0.119*[#  55]+0.119*[#  68]+0.119*[#  81]+0.119*[#  94]+0.112*[# 159]+
          +0.112*[# 172]+0.111*[# 185]+0.111*[# 198]+0.007*[#   3]+0.007*[#  16]+
          +0.007*[#  29]+0.007*[#  42]+0.007*[# 211]+0.007*[# 224]+0.007*[# 237]+
          +0.007*[# 250]+0.001*[#  58]+0.001*[#  71]+0.001*[#  84]+0.001*[#  97]+
          +0.001*[# 162]+0.001*[# 175]+0.001*[# 188]+0.001*[# 201]+
    |psi|^2 = 1.000
     e =   -47.35051 eV
     psi = 0.270*[# 107]+0.270*[# 146]+0.071*[# 186]+0.071*[# 199]+0.063*[#  82]+
          +0.063*[#  95]+0.035*[# 187]+0.035*[# 200]+0.031*[#  83]+0.031*[#  96]+
          +0.006*[#  57]+0.006*[#  70]+0.006*[# 161]+0.006*[# 174]+0.003*[#  56]+
          +0.003*[#  69]+0.003*[# 160]+0.003*[# 173]+0.003*[# 189]+0.003*[# 202]+
          +0.002*[#  85]+0.002*[#  98]+0.002*[# 110]+0.002*[# 149]+0.001*[#  86]+
          +0.001*[#  99]+0.001*[# 190]+0.001*[# 203]+
    |psi|^2 = 1.000
     e =   -47.35050 eV
     psi = 0.270*[# 120]+0.270*[# 133]+0.071*[# 160]+0.071*[# 173]+0.063*[#  56]+
          +0.063*[#  69]+0.035*[# 161]+0.035*[# 174]+0.031*[#  57]+0.031*[#  70]+
          +0.006*[#  83]+0.006*[#  96]+0.006*[# 187]+0.006*[# 200]+0.003*[#  82]+
          +0.003*[#  95]+0.003*[# 186]+0.003*[# 199]+0.003*[# 163]+0.003*[# 176]+
          +0.002*[#  59]+0.002*[#  72]+0.002*[# 123]+0.002*[# 136]+0.001*[#  60]+
          +0.001*[#  73]+0.001*[# 164]+0.001*[# 177]+
    |psi|^2 = 1.000
     e =   -47.34766 eV
     psi = 0.109*[# 109]+0.109*[# 122]+0.109*[# 135]+0.109*[# 148]+0.055*[# 108]+
          +0.054*[# 121]+0.054*[# 134]+0.055*[# 147]+0.029*[# 161]+0.029*[# 174]+
          +0.029*[# 187]+0.029*[# 200]+0.022*[#  57]+0.022*[#  70]+0.022*[#  83]+
          +0.022*[#  96]+0.015*[# 160]+0.015*[# 173]+0.015*[# 186]+0.015*[# 199]+
          +0.011*[#  56]+0.011*[#  69]+0.011*[#  82]+0.011*[#  95]+0.002*[# 112]+
          +0.002*[# 125]+0.002*[# 138]+0.002*[# 151]+0.001*[# 213]+0.001*[# 226]+
          +0.001*[# 239]+0.001*[# 252]+
    |psi|^2 = 1.000
     e =   -47.33589 eV
     psi = 0.129*[#  81]+0.129*[#  94]+0.096*[#  18]+0.096*[#  31]+0.075*[#   4]+
          +0.075*[#  43]+0.048*[#  17]+0.048*[#  30]+0.037*[#   5]+0.037*[#  44]+
          +0.027*[# 185]+0.027*[# 198]+0.025*[# 226]+0.025*[# 239]+0.020*[# 212]+
          +0.020*[# 251]+0.013*[# 225]+0.013*[# 238]+0.010*[# 213]+0.010*[# 252]+
          +0.005*[# 108]+0.005*[# 147]+0.003*[#   7]+0.003*[#  46]+0.003*[#  21]+
          +0.003*[#  34]+0.003*[# 109]+0.003*[# 148]+0.002*[#   8]+0.002*[#  47]+
          +0.001*[#  20]+0.001*[#  33]+0.001*[#  84]+0.001*[#  97]+
    |psi|^2 = 1.000
     e =   -47.33589 eV
     psi = 0.129*[#  55]+0.129*[#  68]+0.096*[#   5]+0.096*[#  44]+0.074*[#  17]+
          +0.074*[#  30]+0.048*[#   4]+0.048*[#  43]+0.037*[#  18]+0.037*[#  31]+
          +0.027*[# 159]+0.027*[# 172]+0.025*[# 213]+0.025*[# 252]+0.020*[# 225]+
          +0.020*[# 238]+0.013*[# 212]+0.013*[# 251]+0.010*[# 226]+0.010*[# 239]+
          +0.005*[# 121]+0.005*[# 134]+0.003*[#  20]+0.003*[#  33]+0.003*[#   8]+
          +0.003*[#  47]+0.003*[# 122]+0.003*[# 135]+0.002*[#  21]+0.002*[#  34]+
          +0.001*[#   7]+0.001*[#  46]+0.001*[#  58]+0.001*[#  71]+
    |psi|^2 = 1.000
     e =   -47.32528 eV
     psi = 0.154*[# 185]+0.154*[# 198]+0.075*[# 226]+0.075*[# 239]+0.059*[# 108]+
          +0.059*[# 147]+0.048*[# 212]+0.048*[# 251]+0.038*[# 225]+0.038*[# 238]+
          +0.030*[#  81]+0.030*[#  94]+0.029*[# 109]+0.029*[# 148]+0.024*[# 213]+
          +0.024*[# 252]+0.012*[#  18]+0.012*[#  31]+0.008*[#   4]+0.008*[#  43]+
          +0.006*[#  17]+0.006*[#  30]+0.004*[#   5]+0.004*[#  44]+0.003*[# 188]+
          +0.003*[# 201]+0.002*[# 229]+0.002*[# 242]+0.002*[# 215]+0.002*[# 254]+
          +0.001*[# 111]+0.001*[# 150]+0.001*[#  84]+0.001*[#  97]+0.001*[# 228]+
          +0.001*[# 241]+
    |psi|^2 = 1.000
     e =   -47.32528 eV
     psi = 0.154*[# 159]+0.154*[# 172]+0.075*[# 213]+0.075*[# 252]+0.059*[# 121]+
          +0.059*[# 134]+0.047*[# 225]+0.047*[# 238]+0.037*[# 212]+0.037*[# 251]+
          +0.030*[#  55]+0.030*[#  68]+0.029*[# 122]+0.029*[# 135]+0.024*[# 226]+
          +0.024*[# 239]+0.012*[#   5]+0.012*[#  44]+0.008*[#  17]+0.008*[#  30]+
          +0.006*[#   4]+0.006*[#  43]+0.004*[#  18]+0.004*[#  31]+0.003*[# 162]+
          +0.003*[# 175]+0.002*[# 216]+0.002*[# 255]+0.002*[# 228]+0.002*[# 241]+
          +0.001*[# 124]+0.001*[# 137]+0.001*[#  58]+0.001*[#  71]+0.001*[# 215]+
          +0.001*[# 254]+
    |psi|^2 = 1.000
     e =   -47.31310 eV
     psi = 0.050*[#  57]+0.050*[#  70]+0.050*[#  83]+0.050*[#  96]+0.047*[# 109]+
          +0.047*[# 122]+0.047*[# 135]+0.047*[# 148]+0.047*[# 161]+0.047*[# 174]+
          +0.047*[# 187]+0.047*[# 200]+0.025*[#  56]+0.025*[#  69]+0.025*[#  82]+
          +0.025*[#  95]+0.024*[# 108]+0.024*[# 121]+0.024*[# 134]+0.024*[# 147]+
          +0.023*[# 160]+0.023*[# 173]+0.023*[# 186]+0.023*[# 199]+0.009*[# 213]+
          +0.009*[# 226]+0.009*[# 239]+0.009*[# 252]+0.008*[#   5]+0.008*[#  18]+
          +0.008*[#  31]+0.008*[#  44]+0.005*[# 212]+0.005*[# 225]+0.005*[# 238]+
          +0.005*[# 251]+0.004*[#   4]+0.004*[#  17]+0.004*[#  30]+0.004*[#  43]+
          +0.002*[# 112]+0.002*[# 125]+0.002*[# 138]+0.002*[# 151]+0.002*[#  60]+
          +0.002*[#  73]+0.002*[#  86]+0.002*[#  99]+0.001*[# 164]+0.001*[# 177]+
          +0.001*[# 190]+0.001*[# 203]+
    |psi|^2 = 1.000
     e =   -47.30987 eV
     psi = 0.161*[#   4]+0.161*[#  17]+0.161*[#  30]+0.161*[#  43]+0.081*[#   5]+
          +0.081*[#  18]+0.081*[#  31]+0.081*[#  44]+0.005*[#   7]+0.005*[#  20]+
          +0.005*[#  33]+0.005*[#  46]+0.003*[#   8]+0.003*[#  21]+0.003*[#  34]+
          +0.003*[#  47]+
    |psi|^2 = 1.000
     e =   -47.30921 eV
     psi = 0.161*[# 212]+0.161*[# 225]+0.161*[# 238]+0.161*[# 251]+0.081*[# 213]+
          +0.081*[# 226]+0.081*[# 239]+0.081*[# 252]+0.005*[# 215]+0.005*[# 228]+
          +0.005*[# 241]+0.005*[# 254]+0.003*[# 216]+0.003*[# 229]+0.003*[# 242]+
          +0.003*[# 255]+
    |psi|^2 = 1.000
     e =   -47.28147 eV
     psi = 0.076*[#  57]+0.076*[#  70]+0.076*[#  83]+0.076*[#  96]+0.071*[# 161]+
          +0.071*[# 174]+0.071*[# 187]+0.071*[# 200]+0.038*[#  56]+0.038*[#  69]+
          +0.038*[#  82]+0.038*[#  95]+0.036*[# 160]+0.036*[# 173]+0.036*[# 186]+
          +0.036*[# 199]+0.007*[# 213]+0.007*[# 226]+0.007*[# 239]+0.007*[# 252]+
          +0.007*[#   5]+0.007*[#  18]+0.007*[#  31]+0.007*[#  44]+0.004*[# 212]+
          +0.004*[# 225]+0.004*[# 238]+0.004*[# 251]+0.003*[#   4]+0.003*[#  17]+
          +0.003*[#  30]+0.003*[#  43]+0.002*[#  60]+0.002*[#  73]+0.002*[#  86]+
          +0.002*[#  99]+0.002*[# 164]+0.002*[# 177]+0.002*[# 190]+0.002*[# 203]+
          +0.001*[#  59]+0.001*[#  72]+0.001*[#  85]+0.001*[#  98]+0.001*[# 163]+
          +0.001*[# 176]+0.001*[# 189]+0.001*[# 202]+
    |psi|^2 = 1.000
     e =   -47.27584 eV
     psi = 0.101*[#  83]+0.101*[#  96]+0.078*[# 187]+0.078*[# 200]+0.077*[#  56]+
          +0.077*[#  69]+0.063*[# 160]+0.063*[# 173]+0.053*[#  57]+0.053*[#  70]+
          +0.043*[# 161]+0.043*[# 174]+0.037*[#  82]+0.037*[#  95]+0.028*[# 186]+
          +0.028*[# 199]+0.004*[#  59]+0.004*[#  72]+0.003*[# 163]+0.003*[# 176]+
          +0.003*[#  16]+0.003*[#  29]+0.002*[#  60]+0.002*[#  73]+0.002*[# 224]+
          +0.002*[# 237]+0.002*[#  86]+0.002*[#  99]+0.002*[# 164]+0.002*[# 177]+
          +0.001*[# 190]+0.001*[# 203]+
    |psi|^2 = 1.000
     e =   -47.27584 eV
     psi = 0.095*[#  82]+0.095*[#  95]+0.083*[#  57]+0.083*[#  70]+0.077*[# 186]+
          +0.077*[# 199]+0.063*[# 161]+0.063*[# 174]+0.056*[#  56]+0.056*[#  69]+
          +0.043*[# 160]+0.043*[# 173]+0.034*[#  83]+0.034*[#  96]+0.028*[# 187]+
          +0.028*[# 200]+0.004*[#  85]+0.004*[#  98]+0.004*[# 189]+0.004*[# 202]+
          +0.003*[#   3]+0.003*[#  42]+0.002*[# 211]+0.002*[# 250]+0.002*[#  86]+
          +0.002*[#  99]+0.001*[#  60]+0.001*[#  73]+0.001*[# 190]+0.001*[# 203]+
          +0.001*[#  59]+0.001*[#  72]+
    |psi|^2 = 1.000
     e =   -47.25108 eV
     psi = 0.161*[#  56]+0.161*[#  69]+0.161*[#  82]+0.161*[#  95]+0.081*[#  57]+
          +0.081*[#  70]+0.081*[#  83]+0.081*[#  96]+0.005*[#  59]+0.005*[#  72]+
          +0.005*[#  85]+0.005*[#  98]+0.003*[#  60]+0.003*[#  73]+0.003*[#  86]+
          +0.003*[#  99]+
    |psi|^2 = 1.000
     e =   -47.24797 eV
     psi = 0.161*[# 160]+0.161*[# 173]+0.161*[# 186]+0.161*[# 199]+0.081*[# 161]+
          +0.081*[# 174]+0.081*[# 187]+0.081*[# 200]+0.005*[# 163]+0.005*[# 176]+
          +0.005*[# 189]+0.005*[# 202]+0.003*[# 164]+0.003*[# 177]+0.003*[# 190]+
          +0.003*[# 203]+
    |psi|^2 = 1.000
     e =   -47.24231 eV
     psi = 0.131*[# 107]+0.131*[# 120]+0.131*[# 146]+0.131*[# 133]+0.061*[# 159]+
          +0.061*[# 172]+0.061*[# 185]+0.061*[# 198]+0.047*[#  55]+0.047*[#  68]+
          +0.047*[#  81]+0.047*[#  94]+0.003*[# 211]+0.003*[# 224]+0.003*[# 237]+
          +0.003*[# 250]+0.002*[#   3]+0.002*[#  16]+0.002*[#  29]+0.002*[#  42]+
    |psi|^2 = 1.000
     e =   -47.23387 eV
     psi = 0.157*[# 107]+0.157*[# 146]+0.087*[# 161]+0.087*[# 174]+0.065*[#  57]+
          +0.065*[#  70]+0.043*[# 160]+0.043*[# 173]+0.037*[# 186]+0.037*[# 199]+
          +0.032*[#  56]+0.032*[#  69]+0.026*[#  82]+0.026*[#  95]+0.020*[# 187]+
          +0.020*[# 200]+0.014*[#  83]+0.014*[#  96]+0.003*[# 110]+0.003*[# 149]+
          +0.003*[# 211]+0.003*[# 250]+0.002*[# 164]+0.002*[# 177]+0.002*[#  60]+
          +0.002*[#  73]+0.002*[#   3]+0.002*[#  42]+0.002*[# 189]+0.002*[# 202]+
          +0.001*[#  85]+0.001*[#  98]+0.001*[# 163]+0.001*[# 176]+
    |psi|^2 = 1.000
     e =   -47.23387 eV
     psi = 0.157*[# 120]+0.157*[# 133]+0.086*[# 187]+0.086*[# 200]+0.064*[#  83]+
          +0.064*[#  96]+0.044*[# 186]+0.044*[# 199]+0.039*[# 160]+0.039*[# 173]+
          +0.033*[#  82]+0.033*[#  95]+0.027*[#  56]+0.027*[#  69]+0.018*[# 161]+
          +0.018*[# 174]+0.013*[#  57]+0.013*[#  70]+0.003*[# 123]+0.003*[# 136]+
          +0.003*[# 224]+0.003*[# 237]+0.002*[# 190]+0.002*[# 203]+0.002*[#  86]+
          +0.002*[#  99]+0.002*[#  16]+0.002*[#  29]+0.002*[# 163]+0.002*[# 176]+
          +0.001*[#  59]+0.001*[#  72]+0.001*[# 189]+0.001*[# 202]+
    |psi|^2 = 1.000
     e =   -47.22974 eV
     psi = 0.142*[# 133]+0.142*[# 107]+0.142*[# 120]+0.142*[# 146]+0.057*[# 159]+
          +0.057*[# 172]+0.057*[# 185]+0.057*[# 198]+0.041*[#  55]+0.041*[#  68]+
          +0.041*[#  81]+0.041*[#  94]+0.003*[# 110]+0.003*[# 123]+0.003*[# 136]+
          +0.003*[# 149]+0.002*[# 162]+0.002*[# 175]+0.002*[# 188]+0.002*[# 201]+
          +0.002*[# 211]+0.002*[# 224]+0.002*[# 237]+0.002*[# 250]+0.001*[#  58]+
          +0.001*[#  71]+0.001*[#  84]+0.001*[#  97]+0.001*[#   3]+0.001*[#  16]+
          +0.001*[#  29]+0.001*[#  42]+
    |psi|^2 = 1.000
     e =   -47.20629 eV
     psi = 0.113*[# 109]+0.113*[# 122]+0.112*[# 135]+0.112*[# 148]+0.056*[# 121]+
          +0.056*[# 147]+0.056*[# 108]+0.056*[# 134]+0.027*[# 161]+0.027*[# 174]+
          +0.027*[# 187]+0.027*[# 200]+0.021*[#  57]+0.021*[#  70]+0.021*[#  83]+
          +0.021*[#  96]+0.014*[# 160]+0.014*[# 173]+0.014*[# 186]+0.014*[# 199]+
          +0.010*[#  56]+0.010*[#  69]+0.010*[#  82]+0.010*[#  95]+0.003*[# 112]+
          +0.003*[# 125]+0.003*[# 138]+0.003*[# 151]+0.002*[# 111]+0.002*[# 124]+
          +0.002*[# 137]+0.002*[# 150]+0.001*[# 213]+0.001*[# 226]+0.001*[# 239]+
          +0.001*[# 252]+
    |psi|^2 = 1.000
     e =   -47.20001 eV
     psi = 0.165*[# 109]+0.165*[# 148]+0.117*[# 121]+0.117*[# 134]+0.079*[# 108]+
          +0.079*[# 147]+0.062*[# 122]+0.062*[# 135]+0.032*[# 159]+0.032*[# 172]+
          +0.024*[#  55]+0.024*[#  68]+0.005*[# 124]+0.005*[# 137]+0.004*[# 112]+
          +0.004*[# 151]+0.003*[# 125]+0.003*[# 138]+0.002*[# 111]+0.002*[# 150]+
          +0.001*[# 213]+0.001*[# 252]+0.001*[#   5]+0.001*[#  44]+
    |psi|^2 = 1.000
     e =   -47.20001 eV
     psi = 0.160*[# 135]+0.160*[# 122]+0.122*[# 108]+0.122*[# 147]+0.084*[# 134]+
          +0.083*[# 121]+0.058*[# 148]+0.057*[# 109]+0.032*[# 185]+0.032*[# 198]+
          +0.024*[#  81]+0.024*[#  94]+0.005*[# 111]+0.005*[# 150]+0.004*[# 125]+
          +0.004*[# 138]+0.003*[# 112]+0.003*[# 151]+0.002*[# 124]+0.002*[# 137]+
          +0.001*[# 226]+0.001*[# 239]+
    |psi|^2 = 1.000
     e =   -47.18373 eV
     psi = 0.161*[# 108]+0.161*[# 134]+0.161*[# 121]+0.161*[# 147]+0.081*[# 109]+
          +0.081*[# 122]+0.081*[# 135]+0.081*[# 148]+0.005*[# 111]+0.005*[# 124]+
          +0.005*[# 137]+0.005*[# 150]+0.003*[# 112]+0.003*[# 125]+0.003*[# 138]+
          +0.003*[# 151]+
    |psi|^2 = 1.000
     e =    -1.56869 eV
     psi = 0.062*[# 106]+0.062*[# 119]+0.062*[# 132]+0.062*[# 145]+0.051*[# 158]+
          +0.051*[# 171]+0.051*[# 184]+0.051*[# 197]+0.048*[#  54]+0.048*[#  67]+
          +0.048*[#  80]+0.048*[#  93]+0.022*[# 210]+0.022*[# 223]+0.022*[# 236]+
          +0.022*[# 249]+0.020*[#   2]+0.020*[#  15]+0.020*[#  28]+0.020*[#  41]+
          +0.009*[# 105]+0.009*[# 118]+0.009*[# 131]+0.009*[# 144]+0.008*[# 214]+
          +0.008*[# 227]+0.008*[# 240]+0.008*[# 253]+0.007*[#   6]+0.007*[#  19]+
          +0.007*[#  32]+0.007*[#  45]+0.007*[# 157]+0.007*[# 170]+0.007*[# 183]+
          +0.007*[# 196]+0.006*[#  53]+0.006*[#  66]+0.006*[#  79]+0.006*[#  92]+
          +0.003*[#  58]+0.003*[#  71]+0.003*[#  84]+0.003*[#  97]+0.003*[# 162]+
          +0.003*[# 175]+0.003*[# 188]+0.003*[# 201]+0.002*[# 209]+0.002*[# 222]+
          +0.002*[# 235]+0.002*[# 248]+0.001*[#   1]+0.001*[#  14]+0.001*[#  27]+
          +0.001*[#  40]+
    |psi|^2 = 0.998
     e =    -0.70575 eV
     psi = 0.044*[# 110]+0.044*[# 123]+0.044*[# 136]+0.044*[# 149]+0.038*[#   2]+
          +0.038*[#  15]+0.038*[#  28]+0.038*[#  41]+0.036*[# 210]+0.036*[# 223]+
          +0.036*[# 236]+0.036*[# 249]+0.033*[#  54]+0.033*[#  67]+0.033*[#  80]+
          +0.033*[#  93]+0.031*[# 158]+0.031*[# 171]+0.031*[# 184]+0.031*[# 197]+
          +0.013*[# 162]+0.013*[# 175]+0.013*[# 188]+0.013*[# 201]+0.013*[#  58]+
          +0.013*[#  71]+0.013*[#  84]+0.013*[#  97]+0.008*[#  53]+0.008*[#  66]+
          +0.008*[#  79]+0.008*[#  92]+0.007*[# 157]+0.007*[# 170]+0.007*[# 183]+
          +0.007*[# 196]+0.005*[#   1]+0.005*[#  14]+0.005*[#  27]+0.005*[#  40]+
          +0.005*[#   6]+0.005*[#  19]+0.005*[#  32]+0.005*[#  45]+0.005*[# 209]+
          +0.005*[# 222]+0.005*[# 235]+0.005*[# 248]+0.005*[# 214]+0.005*[# 227]+
          +0.005*[# 240]+0.005*[# 253]+0.001*[# 107]+0.001*[# 120]+0.001*[# 133]+
          +0.001*[# 146]+
    |psi|^2 = 0.997
     e =     0.53951 eV
     psi = 0.049*[# 162]+0.049*[# 175]+0.049*[# 188]+0.049*[# 201]+0.048*[#  58]+
          +0.048*[#  71]+0.048*[#  84]+0.048*[#  97]+0.039*[# 210]+0.039*[# 223]+
          +0.039*[# 236]+0.039*[# 249]+0.039*[#   2]+0.039*[#  15]+0.039*[#  28]+
          +0.039*[#  41]+0.022*[# 106]+0.022*[# 119]+0.022*[# 132]+0.022*[# 145]+
          +0.010*[# 217]+0.010*[# 230]+0.010*[# 243]+0.010*[# 256]+0.010*[#   9]+
          +0.010*[#  22]+0.010*[#  35]+0.010*[#  48]+0.009*[# 113]+0.009*[# 126]+
          +0.009*[# 139]+0.009*[# 152]+0.008*[# 105]+0.008*[# 118]+0.008*[# 131]+
          +0.008*[# 144]+0.005*[#   1]+0.005*[#  14]+0.005*[#  27]+0.005*[#  40]+
          +0.005*[# 209]+0.005*[# 222]+0.005*[# 235]+0.005*[# 248]+0.002*[#  55]+
          +0.002*[#  68]+0.002*[#  81]+0.002*[#  94]+0.002*[# 159]+0.002*[# 172]+
          +0.002*[# 185]+0.002*[# 198]+
    |psi|^2 = 0.997
     e =     1.44328 eV
     psi = 0.036*[# 217]+0.036*[# 230]+0.036*[# 243]+0.036*[# 256]+0.033*[#   9]+
          +0.033*[#  22]+0.033*[#  35]+0.033*[#  48]+0.029*[# 165]+0.029*[# 178]+
          +0.029*[# 191]+0.029*[# 204]+0.025*[#  61]+0.025*[#  74]+0.025*[#  87]+
          +0.025*[# 100]+0.024*[# 210]+0.024*[# 223]+0.024*[# 236]+0.024*[# 249]+
          +0.023*[#   2]+0.023*[#  15]+0.023*[#  28]+0.023*[#  41]+0.020*[# 110]+
          +0.020*[# 123]+0.020*[# 136]+0.020*[# 149]+0.011*[# 158]+0.011*[# 171]+
          +0.011*[# 184]+0.011*[# 197]+0.011*[#  54]+0.011*[#  67]+0.011*[#  80]+
          +0.011*[#  93]+0.009*[#  58]+0.009*[#  71]+0.009*[#  84]+0.009*[#  97]+
          +0.009*[# 162]+0.009*[# 175]+0.009*[# 188]+0.009*[# 201]+0.006*[# 214]+
          +0.006*[# 227]+0.006*[# 240]+0.006*[# 253]+0.005*[#   6]+0.005*[#  19]+
          +0.005*[#  32]+0.005*[#  45]+0.002*[#  53]+0.002*[#  66]+0.002*[#  79]+
          +0.002*[#  92]+0.002*[# 157]+0.002*[# 170]+0.002*[# 183]+0.002*[# 196]+
          +0.001*[#   1]+0.001*[#  14]+0.001*[#  27]+0.001*[#  40]+0.001*[# 107]+
          +0.001*[# 120]+0.001*[# 133]+0.001*[# 146]+0.001*[# 209]+0.001*[# 222]+
          +0.001*[# 235]+0.001*[# 248]+
    |psi|^2 = 0.997
     e =     1.68224 eV
     psi = 0.059*[# 113]+0.059*[# 126]+0.059*[# 139]+0.059*[# 152]+0.049*[#  61]+
          +0.049*[#  74]+0.049*[#  87]+0.049*[# 100]+0.046*[# 165]+0.046*[# 178]+
          +0.046*[# 191]+0.046*[# 204]+0.022*[#   9]+0.022*[#  22]+0.022*[#  35]+
          +0.022*[#  48]+0.019*[# 217]+0.019*[# 230]+0.019*[# 243]+0.019*[# 256]+
          +0.013*[# 106]+0.013*[# 119]+0.013*[# 132]+0.013*[# 145]+0.010*[#  54]+
          +0.010*[#  67]+0.010*[#  80]+0.010*[#  93]+0.008*[# 158]+0.008*[# 171]+
          +0.008*[# 184]+0.008*[# 197]+0.007*[#   2]+0.007*[#  15]+0.007*[#  28]+
          +0.007*[#  41]+0.005*[# 210]+0.005*[# 223]+0.005*[# 236]+0.005*[# 249]+
          +0.003*[#   6]+0.003*[#  19]+0.003*[#  32]+0.003*[#  45]+0.003*[# 214]+
          +0.003*[# 227]+0.003*[# 240]+0.003*[# 253]+
    |psi|^2 = 0.999
     e =     1.82034 eV
     psi = 0.070*[# 194]+0.070*[# 207]+0.057*[#  90]+0.057*[# 103]+0.050*[# 115]+
          +0.050*[# 154]+0.049*[# 127]+0.049*[# 140]+0.036*[# 158]+0.036*[# 171]+
          +0.030*[#  54]+0.030*[#  67]+0.025*[# 114]+0.025*[# 153]+0.024*[# 128]+
          +0.024*[# 141]+0.017*[# 169]+0.017*[# 182]+0.017*[# 219]+0.017*[# 258]+
          +0.015*[# 231]+0.015*[# 244]+0.014*[#  65]+0.014*[#  78]+0.013*[#  11]+
          +0.013*[#  50]+0.012*[#  23]+0.012*[#  36]+0.009*[# 195]+0.009*[# 208]+
          +0.008*[# 218]+0.008*[# 257]+0.007*[#  91]+0.007*[# 104]+0.007*[# 232]+
          +0.007*[# 245]+0.007*[#  10]+0.007*[#  49]+0.006*[#  24]+0.006*[#  37]+
          +0.004*[# 165]+0.004*[# 178]+0.004*[#  61]+0.004*[#  74]+0.003*[# 216]+
          +0.003*[# 255]+0.002*[#   8]+0.002*[#  47]+0.002*[# 168]+0.002*[# 181]+
          +0.002*[#  64]+0.002*[#  77]+0.002*[# 228]+0.002*[# 241]+0.001*[#  20]+
          +0.001*[#  33]+0.001*[# 215]+0.001*[# 254]+0.001*[#   7]+0.001*[#  46]+
    |psi|^2 = 0.998
     e =     1.82034 eV
     psi = 0.070*[# 168]+0.070*[# 181]+0.058*[#  64]+0.058*[#  77]+0.050*[# 128]+
          +0.050*[# 141]+0.048*[# 114]+0.048*[# 153]+0.036*[# 184]+0.036*[# 197]+
          +0.030*[#  80]+0.030*[#  93]+0.025*[# 127]+0.025*[# 140]+0.024*[# 115]+
          +0.024*[# 154]+0.017*[# 195]+0.017*[# 208]+0.017*[# 232]+0.017*[# 245]+
          +0.015*[# 218]+0.015*[# 257]+0.014*[#  91]+0.014*[# 104]+0.013*[#  24]+
          +0.013*[#  37]+0.012*[#  10]+0.012*[#  49]+0.009*[# 169]+0.009*[# 182]+
          +0.008*[# 231]+0.008*[# 244]+0.008*[# 219]+0.008*[# 258]+0.007*[#  65]+
          +0.007*[#  78]+0.007*[#  23]+0.007*[#  36]+0.006*[#  11]+0.006*[#  50]+
          +0.004*[# 191]+0.004*[# 204]+0.004*[#  87]+0.004*[# 100]+0.003*[# 229]+
          +0.003*[# 242]+0.002*[#  21]+0.002*[#  34]+0.002*[# 194]+0.002*[# 207]+
          +0.002*[#  90]+0.002*[# 103]+0.002*[# 215]+0.002*[# 254]+0.001*[#   7]+
          +0.001*[#  46]+0.001*[# 228]+0.001*[# 241]+0.001*[#  20]+0.001*[#  33]+
    |psi|^2 = 0.998
     e =     1.84177 eV
     psi = 0.091*[# 169]+0.091*[# 182]+0.091*[# 195]+0.091*[# 208]+0.074*[#  65]+
          +0.074*[#  78]+0.074*[#  91]+0.074*[# 104]+0.022*[# 113]+0.022*[# 126]+
          +0.022*[# 139]+0.022*[# 152]+0.011*[# 168]+0.011*[# 181]+0.011*[# 194]+
          +0.011*[# 207]+0.009*[#  64]+0.009*[#  77]+0.009*[#  90]+0.009*[# 103]+
          +0.007*[# 217]+0.007*[# 230]+0.007*[# 243]+0.007*[# 256]+0.006*[# 106]+
          +0.006*[# 119]+0.006*[# 132]+0.006*[# 145]+0.006*[# 158]+0.006*[# 171]+
          +0.006*[# 184]+0.006*[# 197]+0.005*[#   9]+0.005*[#  22]+0.005*[#  35]+
          +0.005*[#  48]+0.005*[#  54]+0.005*[#  67]+0.005*[#  80]+0.005*[#  93]+
          +0.004*[# 117]+0.004*[# 130]+0.004*[# 143]+0.004*[# 156]+0.002*[# 210]+
          +0.002*[# 223]+0.002*[# 236]+0.002*[# 249]+0.001*[#   2]+0.001*[#  15]+
          +0.001*[#  28]+0.001*[#  41]+0.001*[# 214]+0.001*[# 227]+0.001*[# 240]+
          +0.001*[# 253]+0.001*[#   6]+0.001*[#  19]+0.001*[#  32]+0.001*[#  45]+
    |psi|^2 = 0.998
     e =     1.86861 eV
     psi = 0.088*[# 116]+0.088*[# 155]+0.046*[# 119]+0.046*[# 132]+0.043*[# 193]+
          +0.043*[# 206]+0.041*[# 166]+0.041*[# 179]+0.040*[#  89]+0.040*[# 102]+
          +0.038*[#  62]+0.038*[#  75]+0.021*[# 130]+0.021*[# 143]+0.021*[# 192]+
          +0.021*[# 205]+0.021*[# 167]+0.021*[# 180]+0.020*[#  88]+0.020*[# 101]+
          +0.020*[# 220]+0.020*[# 259]+0.019*[#  63]+0.019*[#  76]+0.017*[#  12]+
          +0.017*[#  51]+0.011*[# 117]+0.011*[# 156]+0.010*[# 223]+0.010*[# 236]+
          +0.009*[#  15]+0.009*[#  28]+0.006*[# 126]+0.006*[# 139]+0.005*[# 234]+
          +0.005*[# 247]+0.004*[#  26]+0.004*[#  39]+0.003*[# 129]+0.003*[# 142]+
          +0.002*[# 221]+0.002*[# 260]+0.002*[#  13]+0.002*[#  52]+0.001*[#  86]+
          +0.001*[#  99]+0.001*[# 190]+0.001*[# 203]+
    |psi|^2 = 0.999
     e =     1.86862 eV
     psi = 0.088*[# 129]+0.088*[# 142]+0.046*[# 106]+0.046*[# 145]+0.043*[# 167]+
          +0.043*[# 180]+0.042*[# 192]+0.042*[# 205]+0.040*[#  63]+0.040*[#  76]+
          +0.038*[#  88]+0.038*[# 101]+0.022*[# 117]+0.022*[# 156]+0.022*[# 166]+
          +0.022*[# 179]+0.021*[# 193]+0.021*[# 206]+0.020*[#  62]+0.020*[#  75]+
          +0.020*[# 233]+0.020*[# 246]+0.019*[#  89]+0.019*[# 102]+0.017*[#  25]+
          +0.017*[#  38]+0.011*[# 130]+0.011*[# 143]+0.010*[# 210]+0.010*[# 249]+
          +0.009*[#   2]+0.009*[#  41]+0.006*[# 113]+0.006*[# 152]+0.005*[# 221]+
          +0.005*[# 260]+0.004*[#  13]+0.004*[#  52]+0.003*[# 116]+0.003*[# 155]+
          +0.002*[# 234]+0.002*[# 247]+0.002*[#  26]+0.002*[#  39]+0.001*[#  60]+
          +0.001*[#  73]+0.001*[# 164]+0.001*[# 177]+
    |psi|^2 = 0.999
     e =     1.89394 eV
     psi = 0.055*[# 114]+0.055*[# 127]+0.055*[# 140]+0.055*[# 153]+0.045*[# 166]+
          +0.045*[# 179]+0.045*[# 192]+0.045*[# 205]+0.039*[#  62]+0.039*[#  75]+
          +0.039*[#  88]+0.039*[# 101]+0.028*[# 115]+0.028*[# 128]+0.028*[# 141]+
          +0.028*[# 154]+0.023*[# 167]+0.023*[# 180]+0.023*[# 193]+0.023*[# 206]+
          +0.019*[#  63]+0.019*[#  76]+0.019*[#  89]+0.019*[# 102]+0.013*[# 218]+
          +0.013*[# 231]+0.013*[# 244]+0.013*[# 257]+0.011*[#  10]+0.011*[#  23]+
          +0.011*[#  36]+0.011*[#  49]+0.007*[# 219]+0.007*[# 232]+0.007*[# 245]+
          +0.007*[# 258]+0.005*[#  11]+0.005*[#  24]+0.005*[#  37]+0.005*[#  50]+
          +0.001*[# 215]+0.001*[# 228]+0.001*[# 241]+0.001*[# 254]+0.001*[#   7]+
          +0.001*[#  20]+0.001*[#  33]+0.001*[#  46]+
    |psi|^2 = 0.995
     e =     1.89875 eV
     psi = 0.113*[# 117]+0.113*[# 130]+0.113*[# 143]+0.113*[# 156]+0.028*[# 221]+
          +0.028*[# 234]+0.028*[# 247]+0.028*[# 260]+0.024*[#  13]+0.024*[#  26]+
          +0.024*[#  39]+0.024*[#  52]+0.022*[# 165]+0.022*[# 178]+0.022*[# 191]+
          +0.022*[# 204]+0.019*[#  61]+0.019*[#  74]+0.019*[#  87]+0.019*[# 100]+
          +0.014*[# 116]+0.014*[# 129]+0.014*[# 142]+0.014*[# 155]+0.004*[# 113]+
          +0.004*[# 126]+0.004*[# 139]+0.004*[# 152]+0.004*[# 106]+0.004*[# 119]+
          +0.004*[# 132]+0.004*[# 145]+0.004*[# 220]+0.004*[# 233]+0.004*[# 246]+
          +0.004*[# 259]+0.003*[# 169]+0.003*[# 182]+0.003*[# 195]+0.003*[# 208]+
          +0.003*[#  12]+0.003*[#  25]+0.003*[#  38]+0.003*[#  51]+0.002*[#  54]+
          +0.002*[#  67]+0.002*[#  80]+0.002*[#  93]+0.002*[# 158]+0.002*[# 171]+
          +0.002*[# 184]+0.002*[# 197]+0.002*[#  65]+0.002*[#  78]+0.002*[#  91]+
          +0.002*[# 104]+0.001*[# 217]+0.001*[# 230]+0.001*[# 243]+0.001*[# 256]+
    |psi|^2 = 0.996
     e =     2.16703 eV
     psi = 0.095*[#  65]+0.095*[#  78]+0.095*[#  91]+0.095*[# 104]+0.077*[# 169]+
          +0.077*[# 182]+0.077*[# 195]+0.077*[# 208]+0.012*[#  64]+0.012*[#  77]+
          +0.012*[#  90]+0.012*[# 103]+0.012*[#   9]+0.012*[#  22]+0.012*[#  35]+
          +0.012*[#  48]+0.010*[# 217]+0.010*[# 230]+0.010*[# 243]+0.010*[# 256]+
          +0.010*[# 168]+0.010*[# 181]+0.010*[# 194]+0.010*[# 207]+0.007*[#  13]+
          +0.007*[#  26]+0.007*[#  39]+0.007*[#  52]+0.006*[# 221]+0.006*[# 234]+
          +0.006*[# 247]+0.006*[# 260]+0.005*[# 110]+0.005*[# 123]+0.005*[# 136]+
          +0.005*[# 149]+0.005*[#  61]+0.005*[#  74]+0.005*[#  87]+0.005*[# 100]+
          +0.004*[# 165]+0.004*[# 178]+0.004*[# 191]+0.004*[# 204]+0.002*[#  54]+
          +0.002*[#  67]+0.002*[#  80]+0.002*[#  93]+0.002*[# 158]+0.002*[# 171]+
          +0.002*[# 184]+0.002*[# 197]+0.001*[#   6]+0.001*[#  19]+0.001*[#  32]+
          +0.001*[#  45]+0.001*[# 214]+0.001*[# 227]+0.001*[# 240]+0.001*[# 253]+
    |psi|^2 = 0.997
     e =     2.19365 eV
     psi = 0.084*[#  90]+0.084*[# 103]+0.071*[# 194]+0.071*[# 207]+0.032*[#  54]+
          +0.032*[#  67]+0.031*[#  11]+0.031*[#  50]+0.028*[#  23]+0.028*[#  36]+
          +0.026*[# 158]+0.026*[# 171]+0.026*[# 219]+0.026*[# 258]+0.024*[# 231]+
          +0.024*[# 244]+0.024*[#  65]+0.024*[#  78]+0.020*[# 169]+0.020*[# 182]+
          +0.015*[#  10]+0.015*[#  49]+0.014*[#  24]+0.014*[#  37]+0.013*[# 218]+
          +0.013*[# 257]+0.012*[# 232]+0.012*[# 245]+0.012*[# 112]+0.012*[# 151]+
          +0.011*[#  91]+0.011*[# 104]+0.009*[# 195]+0.009*[# 208]+0.008*[# 124]+
          +0.008*[# 137]+0.006*[# 111]+0.006*[# 150]+0.004*[# 125]+0.004*[# 138]+
          +0.003*[#   8]+0.003*[#  47]+0.003*[#  64]+0.003*[#  77]+0.003*[# 168]+
          +0.003*[# 181]+0.003*[# 216]+0.003*[# 255]+0.002*[#  61]+0.002*[#  74]+
          +0.002*[#  20]+0.002*[#  33]+0.002*[# 165]+0.002*[# 178]+0.001*[#   7]+
          +0.001*[#  46]+0.002*[# 228]+0.002*[# 241]+0.001*[# 215]+0.001*[# 254]+
    |psi|^2 = 0.998
     e =     2.19365 eV
     psi = 0.084*[#  64]+0.084*[#  77]+0.071*[# 168]+0.071*[# 181]+0.032*[#  80]+
          +0.032*[#  93]+0.031*[#  24]+0.031*[#  37]+0.028*[#  10]+0.028*[#  49]+
          +0.026*[# 184]+0.026*[# 197]+0.026*[# 232]+0.026*[# 245]+0.024*[# 218]+
          +0.024*[# 257]+0.024*[#  91]+0.024*[# 104]+0.020*[# 195]+0.020*[# 208]+
          +0.015*[#  23]+0.015*[#  36]+0.014*[#  11]+0.014*[#  50]+0.013*[# 231]+
          +0.013*[# 244]+0.012*[# 219]+0.012*[# 258]+0.012*[# 125]+0.012*[# 138]+
          +0.010*[#  65]+0.010*[#  78]+0.009*[# 169]+0.009*[# 182]+0.008*[# 111]+
          +0.008*[# 150]+0.006*[# 124]+0.006*[# 137]+0.004*[# 112]+0.004*[# 151]+
          +0.003*[#  21]+0.003*[#  34]+0.003*[#  90]+0.003*[# 103]+0.003*[# 194]+
          +0.003*[# 207]+0.003*[# 229]+0.003*[# 242]+0.002*[#  87]+0.002*[# 100]+
          +0.002*[#   7]+0.002*[#  46]+0.002*[# 191]+0.002*[# 204]+0.001*[#  20]+
          +0.001*[#  33]+0.002*[# 215]+0.002*[# 254]+0.001*[# 228]+0.001*[# 241]+
    |psi|^2 = 0.998
     e =     2.26444 eV
     psi = 0.091*[#  13]+0.091*[#  26]+0.091*[#  39]+0.091*[#  52]+0.087*[# 221]+
          +0.087*[# 234]+0.087*[# 247]+0.087*[# 260]+0.011*[#  12]+0.011*[#  25]+
          +0.011*[#  38]+0.011*[#  51]+0.011*[# 220]+0.011*[# 233]+0.011*[# 246]+
          +0.011*[# 259]+0.008*[#  65]+0.008*[#  78]+0.008*[#  91]+0.008*[# 104]+
          +0.007*[# 169]+0.007*[# 182]+0.007*[# 195]+0.007*[# 208]+0.007*[#  61]+
          +0.007*[#  74]+0.007*[#  87]+0.007*[# 100]+0.006*[# 165]+0.006*[# 178]+
          +0.006*[# 191]+0.006*[# 204]+0.005*[#   2]+0.005*[#  15]+0.005*[#  28]+
          +0.005*[#  41]+0.004*[# 210]+0.004*[# 223]+0.004*[# 236]+0.004*[# 249]+
          +0.003*[#  54]+0.003*[#  67]+0.003*[#  80]+0.003*[#  93]+0.003*[# 158]+
          +0.003*[# 171]+0.003*[# 184]+0.003*[# 197]+0.001*[#  58]+0.001*[#  71]+
          +0.001*[#  84]+0.001*[#  97]+0.001*[# 162]+0.001*[# 175]+0.001*[# 188]+
          +0.001*[# 201]+0.001*[#  64]+0.001*[#  77]+0.001*[#  90]+0.001*[# 103]+
    |psi|^2 = 0.998
     e =     2.31610 eV
     psi = 0.047*[#  62]+0.047*[#  75]+0.047*[#  88]+0.047*[# 101]+0.041*[# 166]+
          +0.041*[# 179]+0.041*[# 192]+0.041*[# 205]+0.036*[#  10]+0.036*[#  23]+
          +0.036*[#  36]+0.036*[#  49]+0.033*[# 218]+0.033*[# 231]+0.033*[# 244]+
          +0.033*[# 257]+0.023*[#  63]+0.023*[#  76]+0.023*[#  89]+0.023*[# 102]+
          +0.020*[# 167]+0.020*[# 180]+0.020*[# 193]+0.020*[# 206]+0.018*[#  11]+
          +0.018*[#  24]+0.018*[#  37]+0.018*[#  50]+0.016*[# 219]+0.016*[# 232]+
          +0.016*[# 245]+0.016*[# 258]+0.005*[# 111]+0.005*[# 124]+0.005*[# 137]+
          +0.005*[# 150]+0.002*[# 112]+0.002*[# 125]+0.002*[# 138]+0.002*[# 151]+
          +0.002*[#   7]+0.002*[#  20]+0.002*[#  33]+0.002*[#  46]+0.001*[# 215]+
          +0.001*[# 228]+0.001*[# 241]+0.001*[# 254]+0.001*[#  59]+0.001*[#  72]+
          +0.001*[#  85]+0.001*[#  98]+0.001*[# 163]+0.001*[# 176]+0.001*[# 189]+
          +0.001*[# 202]+
    |psi|^2 = 0.997
     e =     2.33101 eV
     psi = 0.088*[#  25]+0.088*[#  38]+0.086*[# 233]+0.086*[# 246]+0.031*[#  88]+
          +0.031*[# 101]+0.030*[#  63]+0.030*[#  76]+0.028*[# 192]+0.028*[# 205]+
          +0.027*[# 167]+0.027*[# 180]+0.027*[#   2]+0.027*[#  41]+0.026*[# 210]+
          +0.026*[# 249]+0.025*[#  13]+0.025*[#  52]+0.024*[# 221]+0.024*[# 260]+
          +0.016*[#  89]+0.016*[# 102]+0.015*[# 193]+0.015*[# 206]+0.014*[#  62]+
          +0.014*[#  75]+0.013*[# 166]+0.013*[# 179]+0.010*[#  26]+0.010*[#  39]+
          +0.010*[# 234]+0.010*[# 247]+0.004*[#  12]+0.004*[#  51]+0.004*[# 220]+
          +0.004*[# 259]+0.003*[# 164]+0.003*[# 177]+0.003*[#  60]+0.003*[#  73]+
          +0.003*[# 110]+0.003*[# 149]+0.002*[# 189]+0.002*[# 202]+0.002*[#   6]+
          +0.002*[#  45]+0.002*[#  85]+0.002*[#  98]+0.002*[# 214]+0.002*[# 253]+
          +0.001*[# 163]+0.001*[# 176]+0.001*[#  59]+0.001*[#  72]+
    |psi|^2 = 0.999
     e =     2.33101 eV
     psi = 0.087*[#  12]+0.087*[#  51]+0.085*[# 220]+0.085*[# 259]+0.032*[#  62]+
          +0.032*[#  75]+0.030*[# 166]+0.030*[# 179]+0.029*[#  89]+0.029*[# 102]+
          +0.027*[#  15]+0.027*[#  28]+0.026*[# 193]+0.026*[# 206]+0.026*[# 223]+
          +0.026*[# 236]+0.026*[#  26]+0.026*[#  39]+0.025*[# 234]+0.025*[# 247]+
          +0.015*[#  88]+0.015*[# 101]+0.015*[#  63]+0.015*[#  76]+0.014*[# 192]+
          +0.014*[# 205]+0.014*[# 167]+0.014*[# 180]+0.011*[#  13]+0.011*[#  52]+
          +0.011*[# 221]+0.011*[# 260]+0.003*[# 123]+0.003*[# 136]+0.003*[# 190]+
          +0.003*[# 203]+0.003*[#  25]+0.003*[#  38]+0.003*[#  86]+0.003*[#  99]+
          +0.003*[# 233]+0.003*[# 246]+0.002*[# 163]+0.002*[# 176]+0.002*[#  19]+
          +0.002*[#  32]+0.002*[#  59]+0.002*[#  72]+0.002*[# 227]+0.002*[# 240]+
          +0.001*[# 189]+0.001*[# 202]+0.001*[#  85]+0.001*[#  98]+
    |psi|^2 = 0.999
     e =     2.45018 eV
     psi = 0.071*[# 221]+0.071*[# 234]+0.071*[# 247]+0.071*[# 260]+0.070*[#  13]+
          +0.070*[#  26]+0.070*[#  39]+0.070*[#  52]+0.063*[# 117]+0.063*[# 130]+
          +0.063*[# 143]+0.063*[# 156]+0.009*[# 220]+0.009*[# 233]+0.009*[# 246]+
          +0.009*[# 259]+0.009*[#  12]+0.009*[#  25]+0.009*[#  38]+0.009*[#  51]+
          +0.008*[# 116]+0.008*[# 129]+0.008*[# 142]+0.008*[# 155]+0.004*[# 162]+
          +0.004*[# 175]+0.004*[# 188]+0.004*[# 201]+0.004*[#  58]+0.004*[#  71]+
          +0.004*[#  84]+0.004*[#  97]+0.002*[#   2]+0.002*[#  15]+0.002*[#  28]+
          +0.002*[#  41]+0.002*[# 210]+0.002*[# 223]+0.002*[# 236]+0.002*[# 249]+
          +0.002*[#   9]+0.002*[#  22]+0.002*[#  35]+0.002*[#  48]+0.002*[# 113]+
          +0.002*[# 126]+0.002*[# 139]+0.002*[# 152]+0.002*[# 217]+0.002*[# 230]+
          +0.002*[# 243]+0.002*[# 256]+0.002*[# 106]+0.002*[# 119]+0.002*[# 132]+
          +0.002*[# 145]+
    |psi|^2 = 0.998
     e =     2.67621 eV
     psi = 0.099*[# 220]+0.099*[# 259]+0.098*[#  12]+0.098*[#  51]+0.065*[# 116]+
          +0.065*[# 155]+0.032*[# 234]+0.032*[# 247]+0.032*[#  26]+0.032*[#  39]+
          +0.021*[# 130]+0.021*[# 143]+0.018*[#  15]+0.018*[#  28]+0.018*[# 223]+
          +0.018*[# 236]+0.015*[# 119]+0.015*[# 132]+0.012*[#  13]+0.012*[#  52]+
          +0.012*[# 221]+0.012*[# 260]+0.009*[# 190]+0.009*[# 203]+0.008*[#  86]+
          +0.008*[#  99]+0.008*[# 117]+0.008*[# 156]+0.006*[# 163]+0.006*[# 176]+
          +0.006*[#  59]+0.006*[#  72]+0.005*[#  22]+0.005*[#  35]+0.005*[# 230]+
          +0.005*[# 243]+0.004*[#  25]+0.004*[#  38]+0.004*[# 189]+0.004*[# 202]+
          +0.004*[# 233]+0.004*[# 246]+0.004*[#  85]+0.004*[#  98]+0.003*[# 164]+
          +0.003*[# 177]+0.003*[#  60]+0.003*[#  73]+0.003*[# 129]+0.003*[# 142]+
    |psi|^2 = 0.998
     e =     2.67622 eV
     psi = 0.099*[# 233]+0.099*[# 246]+0.098*[#  25]+0.098*[#  38]+0.064*[# 129]+
          +0.064*[# 142]+0.033*[# 221]+0.033*[# 260]+0.033*[#  13]+0.033*[#  52]+
          +0.021*[# 117]+0.021*[# 156]+0.018*[#   2]+0.018*[#  41]+0.018*[# 210]+
          +0.018*[# 249]+0.015*[# 106]+0.015*[# 145]+0.012*[#  26]+0.012*[#  39]+
          +0.012*[# 234]+0.012*[# 247]+0.009*[# 164]+0.009*[# 177]+0.008*[#  60]+
          +0.008*[#  73]+0.008*[# 130]+0.008*[# 143]+0.006*[# 189]+0.006*[# 202]+
          +0.006*[#  85]+0.006*[#  98]+0.005*[#   9]+0.005*[#  48]+0.005*[# 217]+
          +0.005*[# 256]+0.004*[# 163]+0.004*[# 176]+0.004*[#  59]+0.004*[#  72]+
          +0.004*[#  12]+0.004*[#  51]+0.004*[# 220]+0.004*[# 259]+0.003*[# 190]+
          +0.003*[# 203]+0.003*[#  86]+0.003*[#  99]+0.003*[# 116]+0.003*[# 155]+
    |psi|^2 = 0.998
     e =     3.06189 eV
     psi = 0.052*[# 114]+0.052*[# 127]+0.052*[# 140]+0.052*[# 153]+0.049*[# 218]+
          +0.049*[# 231]+0.049*[# 244]+0.049*[# 257]+0.047*[#  10]+0.047*[#  23]+
          +0.047*[#  36]+0.047*[#  49]+0.026*[# 115]+0.026*[# 128]+0.026*[# 141]+
          +0.026*[# 154]+0.024*[# 219]+0.024*[# 232]+0.024*[# 245]+0.024*[# 258]+
          +0.023*[#  11]+0.023*[#  24]+0.023*[#  37]+0.023*[#  50]+0.009*[# 163]+
          +0.009*[# 176]+0.009*[# 189]+0.009*[# 202]+0.008*[#  59]+0.008*[#  72]+
          +0.008*[#  85]+0.008*[#  98]+0.004*[# 164]+0.004*[# 177]+0.004*[# 190]+
          +0.004*[# 203]+0.004*[#  60]+0.004*[#  73]+0.004*[#  86]+0.004*[#  99]+
    |psi|^2 = 0.998
     e =     3.30100 eV
     psi = 0.073*[# 191]+0.073*[# 204]+0.063*[#  87]+0.063*[# 100]+0.057*[# 232]+
          +0.057*[# 245]+0.050*[#  24]+0.050*[#  37]+0.043*[# 168]+0.043*[# 181]+
          +0.037*[#  64]+0.037*[#  77]+0.029*[# 231]+0.029*[# 244]+0.025*[#  23]+
          +0.025*[#  36]+0.021*[# 195]+0.021*[# 208]+0.018*[#  91]+0.018*[# 104]+
          +0.014*[# 218]+0.014*[# 257]+0.013*[#  10]+0.013*[#  49]+0.009*[# 114]+
          +0.009*[# 153]+0.007*[# 219]+0.007*[# 258]+0.006*[#  11]+0.006*[#  50]+
          +0.005*[# 169]+0.005*[# 182]+0.005*[#  65]+0.005*[#  78]+0.005*[# 128]+
          +0.005*[# 141]+0.004*[# 115]+0.004*[# 154]+0.003*[# 188]+0.003*[# 201]+
          +0.003*[#  84]+0.003*[#  97]+0.003*[# 194]+0.003*[# 207]+0.002*[#  90]+
          +0.002*[# 103]+0.002*[# 127]+0.002*[# 140]+
    |psi|^2 = 0.998
     e =     3.30101 eV
     psi = 0.074*[# 165]+0.074*[# 178]+0.063*[#  61]+0.063*[#  74]+0.057*[# 219]+
          +0.057*[# 258]+0.051*[#  11]+0.051*[#  50]+0.043*[# 194]+0.043*[# 207]+
          +0.037*[#  90]+0.037*[# 103]+0.029*[# 218]+0.029*[# 257]+0.025*[#  10]+
          +0.025*[#  49]+0.021*[# 169]+0.021*[# 182]+0.018*[#  65]+0.018*[#  78]+
          +0.014*[# 231]+0.014*[# 244]+0.013*[#  23]+0.013*[#  36]+0.009*[# 127]+
          +0.009*[# 140]+0.007*[# 232]+0.007*[# 245]+0.007*[#  24]+0.007*[#  37]+
          +0.005*[# 195]+0.005*[# 208]+0.005*[#  91]+0.005*[# 104]+0.005*[# 115]+
          +0.005*[# 154]+0.004*[# 128]+0.004*[# 141]+0.003*[# 162]+0.003*[# 175]+
          +0.003*[# 168]+0.003*[# 181]+0.003*[#  58]+0.003*[#  71]+0.002*[#  64]+
          +0.002*[#  77]+0.002*[# 114]+0.002*[# 153]+
    |psi|^2 = 0.998
     e =     3.30260 eV
     psi = 0.088*[#  22]+0.088*[#  35]+0.066*[#  89]+0.066*[# 102]+0.059*[# 230]+
          +0.059*[# 243]+0.049*[#  12]+0.049*[#  51]+0.039*[# 193]+0.039*[# 206]+
          +0.036*[# 220]+0.036*[# 259]+0.033*[#  88]+0.033*[# 101]+0.021*[#  26]+
          +0.021*[#  39]+0.019*[# 192]+0.019*[# 205]+0.016*[#  62]+0.016*[#  75]+
          +0.015*[# 234]+0.015*[# 247]+0.013*[# 166]+0.013*[# 179]+0.008*[#  63]+
          +0.008*[#  76]+0.007*[# 167]+0.007*[# 180]+0.006*[#  13]+0.006*[#  52]+
          +0.006*[# 123]+0.006*[# 136]+0.004*[# 221]+0.004*[# 260]+0.003*[#  25]+
          +0.003*[#  38]+0.002*[#  19]+0.002*[#  32]+0.002*[# 126]+0.002*[# 139]+
          +0.002*[# 233]+0.002*[# 246]+0.002*[# 116]+0.002*[# 155]+0.002*[# 227]+
          +0.002*[# 240]+
    |psi|^2 = 0.999
     e =     3.30260 eV
     psi = 0.088*[#   9]+0.088*[#  48]+0.065*[#  63]+0.065*[#  76]+0.059*[# 217]+
          +0.059*[# 256]+0.049*[#  25]+0.049*[#  38]+0.038*[# 167]+0.038*[# 180]+
          +0.036*[# 233]+0.036*[# 246]+0.033*[#  62]+0.033*[#  75]+0.022*[#  13]+
          +0.022*[#  52]+0.019*[# 166]+0.019*[# 179]+0.016*[#  88]+0.016*[# 101]+
          +0.016*[# 221]+0.016*[# 260]+0.013*[# 192]+0.013*[# 205]+0.008*[#  89]+
          +0.008*[# 102]+0.007*[# 193]+0.007*[# 206]+0.006*[#  26]+0.006*[#  39]+
          +0.006*[# 110]+0.006*[# 149]+0.005*[# 234]+0.005*[# 247]+0.003*[#  12]+
          +0.003*[#  51]+0.002*[#   6]+0.002*[#  45]+0.002*[# 113]+0.002*[# 152]+
          +0.002*[# 220]+0.002*[# 259]+0.002*[# 129]+0.002*[# 142]+0.002*[# 214]+
          +0.002*[# 253]+
    |psi|^2 = 0.999
     e =     3.31907 eV
     psi = 0.105*[# 113]+0.105*[# 152]+0.086*[# 129]+0.086*[# 142]+0.057*[# 167]+
          +0.057*[# 180]+0.052*[# 217]+0.052*[# 256]+0.040*[# 117]+0.040*[# 156]+
          +0.030*[#  63]+0.030*[#  76]+0.029*[# 166]+0.029*[# 179]+0.023*[#   9]+
          +0.023*[#  48]+0.017*[# 233]+0.017*[# 246]+0.015*[#  62]+0.015*[#  75]+
          +0.011*[# 130]+0.011*[# 143]+0.009*[# 221]+0.009*[# 260]+0.006*[#  25]+
          +0.006*[#  38]+0.005*[# 116]+0.005*[# 155]+0.003*[#  13]+0.003*[#  52]+
          +0.002*[# 234]+0.002*[# 247]+0.002*[# 192]+0.002*[# 205]+0.001*[# 214]+
          +0.001*[# 253]+0.001*[# 220]+0.001*[# 259]+
    |psi|^2 = 0.998
[...]
          +0.078*[# 180]+0.044*[# 219]+0.044*[# 258]+0.043*[#  11]+0.043*[#  50]+
          +0.041*[# 114]+0.041*[# 153]+0.039*[#  62]+0.039*[#  75]+0.039*[# 166]+
          +0.039*[# 179]+0.022*[# 218]+0.022*[# 257]+0.022*[#  10]+0.022*[#  49]+
          +0.002*[#  25]+0.002*[#  38]+0.002*[# 233]+0.002*[# 246]+
    |psi|^2 = 1.000
     e =     9.07924 eV
     psi = 0.068*[# 166]+0.068*[# 179]+0.067*[#  62]+0.067*[#  75]+0.034*[# 167]+
          +0.034*[# 180]+0.034*[#  63]+0.034*[#  76]+0.027*[# 130]+0.027*[# 143]+
          +0.023*[# 218]+0.023*[# 257]+0.022*[#  10]+0.022*[#  49]+0.018*[# 192]+
          +0.018*[# 205]+0.018*[#  88]+0.018*[# 101]+0.011*[# 219]+0.011*[# 258]+
          +0.011*[#  11]+0.011*[#  50]+0.010*[# 126]+0.010*[# 139]+0.009*[# 193]+
          +0.009*[# 206]+0.009*[#  89]+0.009*[# 102]+0.007*[# 117]+0.007*[# 156]+
          +0.007*[# 234]+0.007*[# 247]+0.007*[#  26]+0.007*[#  39]+0.006*[# 231]+
          +0.006*[# 244]+0.006*[#  23]+0.006*[#  36]+0.006*[# 119]+0.006*[# 132]+
          +0.005*[# 223]+0.005*[# 236]+0.005*[#  15]+0.005*[#  28]+0.005*[# 188]+
          +0.005*[# 201]+0.005*[#  84]+0.005*[#  97]+0.005*[# 111]+0.005*[# 150]+
          +0.005*[# 215]+0.005*[# 254]+0.005*[#   7]+0.005*[#  46]+0.004*[#  22]+
          +0.004*[#  35]+0.004*[# 230]+0.004*[# 243]+0.003*[# 129]+0.003*[# 142]+
          +0.003*[#  24]+0.003*[#  37]+0.003*[# 232]+0.003*[# 245]+0.003*[#  91]+
          +0.003*[# 104]+0.003*[# 113]+0.003*[# 152]+0.003*[# 195]+0.003*[# 208]+
          +0.002*[#   8]+0.002*[#  19]+0.002*[#  32]+0.002*[#  47]+0.002*[# 112]+
          +0.002*[# 151]+0.002*[# 216]+0.002*[# 227]+0.002*[# 240]+0.002*[# 255]+
          +0.002*[#  13]+0.002*[#  52]+0.002*[# 221]+0.002*[# 260]+0.001*[#  87]+
          +0.001*[# 100]+0.002*[# 191]+0.002*[# 204]+0.001*[# 106]+0.001*[# 145]+
          +0.001*[#   2]+0.001*[#  20]+0.001*[#  33]+0.001*[#  41]+0.001*[#  58]+
          +0.001*[#  71]+0.001*[# 124]+0.001*[# 137]+0.001*[# 162]+0.001*[# 175]+
          +0.001*[# 210]+0.001*[# 228]+0.001*[# 241]+0.001*[# 249]+
    |psi|^2 = 0.999
     e =     9.07925 eV
     psi = 0.068*[# 192]+0.068*[# 205]+0.067*[#  88]+0.067*[# 101]+0.034*[# 193]+
          +0.034*[# 206]+0.034*[#  89]+0.034*[# 102]+0.027*[# 117]+0.027*[# 156]+
          +0.023*[# 231]+0.023*[# 244]+0.022*[#  23]+0.022*[#  36]+0.018*[# 166]+
          +0.018*[# 179]+0.018*[#  62]+0.018*[#  75]+0.011*[# 232]+0.011*[# 245]+
          +0.011*[#  24]+0.011*[#  37]+0.010*[# 113]+0.010*[# 152]+0.009*[# 167]+
          +0.009*[# 180]+0.009*[#  63]+0.009*[#  76]+0.007*[# 130]+0.007*[# 143]+
          +0.007*[# 221]+0.007*[# 260]+0.007*[#  13]+0.007*[#  52]+0.006*[# 218]+
          +0.006*[# 257]+0.006*[#  10]+0.006*[#  49]+0.006*[# 106]+0.006*[# 145]+
          +0.005*[# 210]+0.005*[# 249]+0.005*[#   2]+0.005*[#  41]+0.005*[# 162]+
          +0.005*[# 175]+0.005*[#  58]+0.005*[#  71]+0.005*[# 124]+0.005*[# 137]+
          +0.005*[# 228]+0.005*[# 241]+0.005*[#  20]+0.005*[#  33]+0.004*[#   9]+
          +0.004*[#  48]+0.004*[# 217]+0.004*[# 256]+0.003*[# 116]+0.003*[# 155]+
          +0.003*[#  11]+0.003*[#  50]+0.003*[# 219]+0.003*[# 258]+0.003*[#  65]+
          +0.003*[#  78]+0.003*[# 126]+0.003*[# 139]+0.003*[# 169]+0.003*[# 182]+
          +0.002*[#   6]+0.002*[#  21]+0.002*[#  34]+0.002*[#  45]+0.002*[# 125]+
          +0.002*[# 138]+0.002*[# 214]+0.002*[# 229]+0.002*[# 242]+0.002*[# 253]+
          +0.002*[#  26]+0.002*[#  39]+0.002*[# 234]+0.002*[# 247]+0.001*[#  61]+
          +0.001*[#  74]+0.002*[# 165]+0.002*[# 178]+0.001*[# 119]+0.001*[# 132]+
          +0.001*[#   7]+0.001*[#  15]+0.001*[#  28]+0.001*[#  46]+0.001*[#  84]+
          +0.001*[#  97]+0.001*[# 111]+0.001*[# 150]+0.001*[# 188]+0.001*[# 201]+
          +0.001*[# 215]+0.001*[# 223]+0.001*[# 236]+0.001*[# 254]+
    |psi|^2 = 0.999
     e =     9.33516 eV
     psi = 0.080*[# 130]+0.080*[# 143]+0.065*[# 169]+0.065*[# 182]+0.064*[#  65]+
          +0.064*[#  78]+0.043*[# 234]+0.043*[# 247]+0.035*[#  26]+0.035*[#  39]+
          +0.017*[# 230]+0.017*[# 243]+0.016*[#  61]+0.016*[#  74]+0.015*[#  22]+
          +0.015*[#  35]+0.014*[# 165]+0.014*[# 178]+0.013*[# 126]+0.013*[# 139]+
          +0.012*[# 112]+0.012*[# 151]+0.010*[# 129]+0.010*[# 142]+0.010*[# 190]+
          +0.010*[# 203]+0.009*[#  86]+0.009*[#  99]+0.008*[# 168]+0.008*[# 181]+
          +0.008*[#  64]+0.008*[#  77]+0.008*[# 119]+0.008*[# 132]+0.006*[# 111]+
          +0.006*[# 150]+0.006*[# 158]+0.006*[# 171]+0.006*[#  54]+0.006*[#  67]+
          +0.005*[# 233]+0.005*[# 246]+0.005*[# 216]+0.005*[# 255]+0.005*[# 189]+
          +0.005*[# 202]+0.004*[#  25]+0.004*[#  38]+0.004*[#  85]+0.004*[#  98]+
          +0.004*[#   8]+0.004*[#  47]+0.004*[# 223]+0.004*[# 236]+0.003*[#  15]+
          +0.003*[#  28]+0.002*[# 215]+0.002*[# 254]+0.002*[#   7]+0.002*[#  46]+
          +0.001*[# 219]+0.001*[# 258]+0.001*[#  11]+0.001*[#  50]+0.001*[#  89]+
          +0.001*[# 102]+0.001*[# 193]+0.001*[# 206]+
    |psi|^2 = 0.999
     e =     9.33517 eV
     psi = 0.080*[# 117]+0.080*[# 156]+0.065*[# 195]+0.065*[# 208]+0.064*[#  91]+
          +0.064*[# 104]+0.043*[# 221]+0.043*[# 260]+0.035*[#  13]+0.035*[#  52]+
          +0.017*[# 217]+0.017*[# 256]+0.016*[#  87]+0.016*[# 100]+0.015*[#   9]+
          +0.015*[#  48]+0.014*[# 191]+0.014*[# 204]+0.013*[# 113]+0.013*[# 152]+
          +0.012*[# 125]+0.012*[# 138]+0.010*[# 116]+0.010*[# 155]+0.010*[# 164]+
          +0.010*[# 177]+0.009*[#  60]+0.009*[#  73]+0.008*[# 194]+0.008*[# 207]+
          +0.008*[#  90]+0.008*[# 103]+0.008*[# 106]+0.008*[# 145]+0.006*[# 124]+
          +0.006*[# 137]+0.006*[# 184]+0.006*[# 197]+0.006*[#  80]+0.006*[#  93]+
          +0.005*[# 220]+0.005*[# 259]+0.005*[# 229]+0.005*[# 242]+0.005*[# 163]+
          +0.005*[# 176]+0.004*[#  12]+0.004*[#  51]+0.004*[#  59]+0.004*[#  72]+
          +0.004*[#  21]+0.004*[#  34]+0.004*[# 210]+0.004*[# 249]+0.003*[#   2]+
          +0.003*[#  41]+0.002*[# 228]+0.002*[# 241]+0.002*[#  20]+0.002*[#  33]+
          +0.001*[# 232]+0.001*[# 245]+0.001*[#  24]+0.001*[#  37]+0.001*[#  63]+
          +0.001*[#  76]+0.001*[# 167]+0.001*[# 180]+
    |psi|^2 = 0.999
     e =     9.57872 eV
     psi = 0.104*[#  13]+0.104*[#  52]+0.099*[# 221]+0.099*[# 260]+0.044*[#  91]+
          +0.044*[# 104]+0.038*[# 195]+0.038*[# 208]+0.018*[#  21]+0.018*[#  34]+
          +0.017*[# 229]+0.017*[# 242]+0.013*[#  12]+0.013*[#  51]+0.012*[# 220]+
          +0.012*[# 259]+0.012*[#   2]+0.012*[#  41]+0.012*[# 210]+0.012*[# 249]+
          +0.009*[#  20]+0.009*[#  33]+0.009*[# 228]+0.009*[# 241]+0.008*[#  60]+
          +0.008*[#  73]+0.008*[#   9]+0.008*[#  48]+0.007*[# 164]+0.007*[# 177]+
          +0.007*[# 128]+0.007*[# 141]+0.007*[# 217]+0.007*[# 256]+0.005*[#  90]+
          +0.005*[# 103]+0.005*[#  26]+0.005*[#  39]+0.005*[# 194]+0.005*[# 207]+
          +0.005*[# 234]+0.005*[# 247]+0.004*[# 110]+0.004*[# 149]+0.004*[#  59]+
          +0.004*[#  72]+0.004*[#  80]+0.004*[#  93]+0.004*[# 127]+0.004*[# 140]+
          +0.004*[# 163]+0.004*[# 176]+0.003*[# 184]+0.003*[# 197]+0.002*[# 167]+
          +0.002*[# 180]+0.002*[#  63]+0.002*[#  76]+0.002*[#  65]+0.002*[#  78]+
          +0.002*[# 169]+0.002*[# 182]+0.002*[# 188]+0.002*[# 201]+0.002*[#  84]+
          +0.002*[#  97]+0.001*[#  24]+0.001*[#  37]+0.001*[#  62]+0.001*[#  75]+
          +0.001*[# 166]+0.001*[# 179]+0.001*[# 232]+0.001*[# 245]+
    |psi|^2 = 0.999
     e =     9.57872 eV
     psi = 0.104*[#  26]+0.104*[#  39]+0.099*[# 234]+0.099*[# 247]+0.044*[#  65]+
          +0.044*[#  78]+0.038*[# 169]+0.038*[# 182]+0.018*[#   8]+0.018*[#  47]+
          +0.017*[# 216]+0.017*[# 255]+0.013*[#  25]+0.013*[#  38]+0.012*[# 233]+
          +0.012*[# 246]+0.012*[#  15]+0.012*[#  28]+0.012*[# 223]+0.012*[# 236]+
          +0.009*[#   7]+0.009*[#  46]+0.009*[# 215]+0.009*[# 254]+0.008*[#  86]+
          +0.008*[#  99]+0.008*[#  22]+0.008*[#  35]+0.007*[# 190]+0.007*[# 203]+
          +0.007*[# 115]+0.007*[# 154]+0.007*[# 230]+0.007*[# 243]+0.005*[#  64]+
          +0.005*[#  77]+0.005*[#  13]+0.005*[#  52]+0.005*[# 168]+0.005*[# 181]+
          +0.005*[# 221]+0.005*[# 260]+0.004*[# 123]+0.004*[# 136]+0.004*[#  85]+
          +0.004*[#  98]+0.004*[#  54]+0.004*[#  67]+0.004*[# 114]+0.004*[# 153]+
          +0.004*[# 189]+0.004*[# 202]+0.003*[# 158]+0.003*[# 171]+0.002*[# 193]+
          +0.002*[# 206]+0.002*[#  89]+0.002*[# 102]+0.002*[#  91]+0.002*[# 104]+
          +0.002*[# 195]+0.002*[# 208]+0.002*[# 162]+0.002*[# 175]+0.002*[#  58]+
          +0.002*[#  71]+0.001*[#  11]+0.001*[#  50]+0.001*[# 219]+0.001*[#  88]+
          +0.001*[# 101]+0.001*[# 192]+0.001*[# 205]+0.001*[# 258]+
    |psi|^2 = 0.999
     e =     9.66310 eV
     psi = 0.038*[# 114]+0.038*[# 153]+0.027*[#  10]+0.027*[#  49]+0.027*[# 218]+
          +0.027*[# 257]+0.025*[# 127]+0.025*[# 140]+0.019*[# 115]+0.019*[# 154]+
          +0.018*[#  23]+0.018*[#  36]+0.018*[# 231]+0.018*[# 244]+0.016*[#  19]+
          +0.016*[#  32]+0.015*[# 227]+0.015*[# 240]+0.014*[# 123]+0.014*[# 136]+
          +0.014*[#  11]+0.014*[#  50]+0.014*[# 219]+0.014*[# 258]+0.013*[# 128]+
          +0.013*[# 141]+0.010*[#   6]+0.010*[#  45]+0.010*[# 214]+0.010*[# 253]+
          +0.010*[# 195]+0.010*[# 208]+0.010*[#  91]+0.010*[# 104]+0.009*[# 110]+
          +0.009*[# 149]+0.009*[#  24]+0.009*[#  37]+0.009*[# 232]+0.009*[# 245]+
          +0.008*[#  80]+0.008*[#  93]+0.008*[# 184]+0.008*[# 197]+0.008*[#  87]+
          +0.008*[# 100]+0.007*[# 191]+0.007*[# 204]+0.007*[# 169]+0.007*[# 182]+
          +0.006*[#  65]+0.006*[#  78]+0.006*[#  15]+0.006*[#  28]+0.006*[#  54]+
          +0.006*[#  67]+0.006*[# 223]+0.006*[# 236]+0.005*[# 158]+0.005*[# 171]+
          +0.005*[#   7]+0.005*[#  46]+0.005*[#  61]+0.005*[#  74]+0.005*[# 165]+
          +0.005*[# 178]+0.005*[# 215]+0.005*[# 254]+0.004*[#  59]+0.004*[#  72]+
          +0.004*[# 163]+0.004*[# 176]+0.004*[# 179]+0.004*[#   2]+0.004*[#  41]+
          +0.004*[#  62]+0.004*[#  75]+0.004*[# 166]+0.004*[# 210]+0.004*[# 249]+
          +0.003*[#  20]+0.003*[#  33]+0.003*[# 228]+0.003*[# 241]+0.003*[#  22]+
          +0.003*[#  35]+0.003*[#  85]+0.003*[#  98]+0.003*[# 189]+0.003*[# 202]+
          +0.003*[# 230]+0.003*[# 243]+0.003*[#   8]+0.003*[#  47]+0.003*[#  88]+
          +0.003*[# 101]+0.003*[# 192]+0.003*[# 205]+0.002*[# 216]+0.002*[# 255]+
          +0.002*[#  84]+0.002*[#  97]+0.002*[# 188]+0.002*[# 201]+0.002*[#  60]+
          +0.002*[#  73]+0.002*[# 164]+0.002*[# 177]+0.002*[#   9]+0.002*[#  48]+
          +0.002*[#  63]+0.002*[#  76]+0.002*[# 167]+0.002*[# 180]+0.002*[# 217]+
          +0.002*[# 256]+0.002*[#  21]+0.002*[#  34]+0.002*[# 229]+0.002*[# 242]+
          +0.001*[#  58]+0.001*[#  71]+0.001*[#  86]+0.001*[#  99]+0.002*[# 162]+
          +0.002*[# 175]+0.001*[# 190]+0.001*[# 203]+0.001*[#  89]+0.001*[#  90]+
          +0.001*[# 102]+0.001*[# 103]+0.001*[# 193]+0.001*[# 194]+0.001*[# 206]+
          +0.001*[# 207]+
    |psi|^2 = 0.998
     e =     9.66311 eV
     psi = 0.038*[# 127]+0.038*[# 140]+0.027*[#  23]+0.027*[#  36]+0.027*[# 231]+
          +0.027*[# 244]+0.025*[# 114]+0.025*[# 153]+0.019*[# 128]+0.019*[# 141]+
          +0.018*[#  10]+0.018*[#  49]+0.018*[# 218]+0.018*[# 257]+0.016*[#   6]+
          +0.016*[#  45]+0.015*[# 214]+0.015*[# 253]+0.014*[# 110]+0.014*[# 149]+
          +0.014*[#  24]+0.014*[#  37]+0.014*[# 232]+0.014*[# 245]+0.013*[# 115]+
          +0.013*[# 154]+0.010*[#  19]+0.010*[#  32]+0.010*[# 227]+0.010*[# 240]+
          +0.010*[# 169]+0.010*[# 182]+0.010*[#  65]+0.010*[#  78]+0.009*[# 123]+
          +0.009*[# 136]+0.009*[#  11]+0.009*[#  50]+0.009*[# 219]+0.009*[# 258]+
          +0.008*[#  54]+0.008*[#  67]+0.008*[# 158]+0.008*[# 171]+0.008*[#  61]+
          +0.008*[#  74]+0.007*[# 165]+0.007*[# 178]+0.007*[# 195]+0.007*[# 208]+
          +0.006*[#  91]+0.006*[# 104]+0.006*[#   2]+0.006*[#  41]+0.006*[#  80]+
          +0.006*[#  93]+0.006*[# 210]+0.006*[# 249]+0.005*[# 184]+0.005*[# 197]+
          +0.005*[#  20]+0.005*[#  33]+0.005*[#  87]+0.005*[# 100]+0.005*[# 191]+
          +0.005*[# 204]+0.005*[# 228]+0.005*[# 241]+0.004*[#  85]+0.004*[#  98]+
          +0.004*[# 189]+0.004*[# 202]+0.004*[#  15]+0.004*[#  28]+0.004*[#  88]+
          +0.004*[# 101]+0.004*[# 192]+0.004*[# 205]+0.004*[# 223]+0.004*[# 236]+
          +0.003*[#   7]+0.003*[#  46]+0.003*[# 215]+0.003*[# 254]+0.003*[#   9]+
          +0.003*[#  48]+0.003*[#  59]+0.003*[#  72]+0.003*[# 163]+0.003*[# 176]+
          +0.003*[# 217]+0.003*[# 256]+0.003*[#  21]+0.003*[#  34]+0.003*[#  62]+
          +0.003*[#  75]+0.003*[# 166]+0.003*[# 179]+0.002*[# 229]+0.002*[# 242]+
          +0.002*[#  58]+0.002*[#  71]+0.002*[# 162]+0.002*[# 175]+0.002*[#  86]+
          +0.002*[#  99]+0.002*[# 190]+0.002*[# 203]+0.002*[#  22]+0.002*[#  35]+
          +0.002*[#  89]+0.002*[# 102]+0.002*[# 193]+0.002*[# 206]+0.002*[# 230]+
          +0.002*[# 243]+0.002*[#   8]+0.002*[#  47]+0.002*[# 216]+0.002*[# 255]+
          +0.001*[#  60]+0.001*[#  73]+0.001*[#  84]+0.001*[#  97]+0.002*[# 188]+
          +0.002*[# 201]+0.001*[# 164]+0.001*[# 177]+0.001*[#  63]+0.001*[#  64]+
          +0.001*[#  76]+0.001*[#  77]+0.001*[# 167]+0.001*[# 168]+0.001*[# 180]+
          +0.001*[# 181]+
    |psi|^2 = 0.998

Lowdin Charges: 

     Atom #   1: total charge =  15.9253, s =  2.3628, p =  6.9225, d =  6.6401, 
                 spin up      =   9.3019, s =  1.1786, p =  3.4403, d =  4.6830, 
                 spin down    =   6.6235, s =  1.1842, p =  3.4822, d =  1.9571, 
                 polarization =   2.6784, s = -0.0056, p = -0.0419, d =  2.7259, 
     Atom #   2: total charge =  15.9253, s =  2.3628, p =  6.9225, d =  6.6401, 
                 spin up      =   9.3019, s =  1.1786, p =  3.4403, d =  4.6830, 
                 spin down    =   6.6234, s =  1.1842, p =  3.4822, d =  1.9571, 
                 polarization =   2.6784, s = -0.0056, p = -0.0419, d =  2.7259, 
     Atom #   3: total charge =  15.9253, s =  2.3628, p =  6.9225, d =  6.6400, 
                 spin up      =   9.3019, s =  1.1786, p =  3.4403, d =  4.6830, 
                 spin down    =   6.6234, s =  1.1842, p =  3.4822, d =  1.9571, 
                 polarization =   2.6784, s = -0.0056, p = -0.0419, d =  2.7259, 
     Atom #   4: total charge =  15.9253, s =  2.3628, p =  6.9225, d =  6.6401, 
                 spin up      =   9.3019, s =  1.1786, p =  3.4403, d =  4.6830, 
                 spin down    =   6.6234, s =  1.1842, p =  3.4822, d =  1.9571, 
                 polarization =   2.6784, s = -0.0056, p = -0.0419, d =  2.7259, 
     Atom #   5: total charge =  16.0165, s =  2.2905, p =  7.0919, d =  6.6342, 
                 spin up      =   9.1139, s =  1.1345, p =  3.4847, d =  4.4947, 
                 spin down    =   6.9026, s =  1.1560, p =  3.6071, d =  2.1395, 
                 polarization =   2.2113, s = -0.0215, p = -0.1224, d =  2.3552, 
     Atom #   6: total charge =  16.0165, s =  2.2905, p =  7.0919, d =  6.6342, 
                 spin up      =   9.1139, s =  1.1345, p =  3.4847, d =  4.4947, 
                 spin down    =   6.9026, s =  1.1560, p =  3.6071, d =  2.1395, 
                 polarization =   2.2113, s = -0.0215, p = -0.1224, d =  2.3552, 
     Atom #   7: total charge =  16.0165, s =  2.2905, p =  7.0919, d =  6.6342, 
                 spin up      =   9.1139, s =  1.1345, p =  3.4847, d =  4.4947, 
                 spin down    =   6.9026, s =  1.1560, p =  3.6071, d =  2.1395, 
                 polarization =   2.2113, s = -0.0215, p = -0.1224, d =  2.3551, 
     Atom #   8: total charge =  16.0165, s =  2.2905, p =  7.0919, d =  6.6342, 
                 spin up      =   9.1139, s =  1.1345, p =  3.4847, d =  4.4947, 
                 spin down    =   6.9026, s =  1.1560, p =  3.6071, d =  2.1395, 
                 polarization =   2.2113, s = -0.0215, p = -0.1224, d =  2.3551, 
     Atom #   9: total charge =  15.9864, s =  2.2834, p =  7.0768, d =  6.6263, 
                 spin up      =   9.0080, s =  1.1325, p =  3.4791, d =  4.3964, 
                 spin down    =   6.9785, s =  1.1509, p =  3.5977, d =  2.2299, 
                 polarization =   2.0295, s = -0.0184, p = -0.1186, d =  2.1665, 
     Atom #  10: total charge =  15.9865, s =  2.2834, p =  7.0768, d =  6.6263, 
                 spin up      =   9.0079, s =  1.1325, p =  3.4791, d =  4.3964, 
                 spin down    =   6.9785, s =  1.1509, p =  3.5977, d =  2.2299, 
                 polarization =   2.0294, s = -0.0184, p = -0.1186, d =  2.1665, 
     Atom #  11: total charge =  15.9864, s =  2.2834, p =  7.0768, d =  6.6263, 
                 spin up      =   9.0079, s =  1.1325, p =  3.4791, d =  4.3964, 
                 spin down    =   6.9785, s =  1.1509, p =  3.5977, d =  2.2299, 
                 polarization =   2.0294, s = -0.0184, p = -0.1186, d =  2.1665, 
     Atom #  12: total charge =  15.9864, s =  2.2834, p =  7.0768, d =  6.6263, 
                 spin up      =   9.0080, s =  1.1325, p =  3.4791, d =  4.3964, 
                 spin down    =   6.9785, s =  1.1509, p =  3.5977, d =  2.2299, 
                 polarization =   2.0295, s = -0.0184, p = -0.1186, d =  2.1665, 
     Atom #  13: total charge =  16.0187, s =  2.2896, p =  7.0922, d =  6.6370, 
                 spin up      =   9.0976, s =  1.1341, p =  3.4860, d =  4.4776, 
                 spin down    =   6.9211, s =  1.1555, p =  3.6062, d =  2.1594, 
                 polarization =   2.1766, s = -0.0214, p = -0.1202, d =  2.3181, 
     Atom #  14: total charge =  16.0187, s =  2.2896, p =  7.0922, d =  6.6370, 
                 spin up      =   9.0976, s =  1.1341, p =  3.4860, d =  4.4776, 
                 spin down    =   6.9211, s =  1.1555, p =  3.6062, d =  2.1594, 
                 polarization =   2.1766, s = -0.0214, p = -0.1202, d =  2.3181, 
     Atom #  15: total charge =  16.0187, s =  2.2896, p =  7.0922, d =  6.6370, 
                 spin up      =   9.0976, s =  1.1341, p =  3.4860, d =  4.4776, 
                 spin down    =   6.9211, s =  1.1555, p =  3.6062, d =  2.1594, 
                 polarization =   2.1766, s = -0.0214, p = -0.1202, d =  2.3182, 
     Atom #  16: total charge =  16.0187, s =  2.2896, p =  7.0922, d =  6.6370, 
                 spin up      =   9.0976, s =  1.1341, p =  3.4860, d =  4.4776, 
                 spin down    =   6.9211, s =  1.1555, p =  3.6062, d =  2.1594, 
                 polarization =   2.1766, s = -0.0214, p = -0.1202, d =  2.3182, 
     Atom #  17: total charge =  15.9242, s =  2.3619, p =  6.9217, d =  6.6405, 
                 spin up      =   9.2948, s =  1.1782, p =  3.4395, d =  4.6771, 
                 spin down    =   6.6294, s =  1.1837, p =  3.4822, d =  1.9635, 
                 polarization =   2.6654, s = -0.0056, p = -0.0426, d =  2.7136, 
     Atom #  18: total charge =  15.9242, s =  2.3619, p =  6.9217, d =  6.6406, 
                 spin up      =   9.2948, s =  1.1782, p =  3.4395, d =  4.6771, 
                 spin down    =   6.6294, s =  1.1837, p =  3.4822, d =  1.9635, 
                 polarization =   2.6654, s = -0.0056, p = -0.0426, d =  2.7136, 
     Atom #  19: total charge =  15.9242, s =  2.3619, p =  6.9217, d =  6.6406, 
                 spin up      =   9.2948, s =  1.1782, p =  3.4395, d =  4.6771, 
                 spin down    =   6.6294, s =  1.1837, p =  3.4822, d =  1.9635, 
                 polarization =   2.6654, s = -0.0056, p = -0.0426, d =  2.7136, 
     Atom #  20: total charge =  15.9242, s =  2.3619, p =  6.9217, d =  6.6405, 
                 spin up      =   9.2948, s =  1.1782, p =  3.4395, d =  4.6771, 
                 spin down    =   6.6294, s =  1.1837, p =  3.4822, d =  1.9635, 
                 polarization =   2.6654, s = -0.0056, p = -0.0426, d =  2.7136, 
     Spilling Parameter:   0.0016
Application 16739788 resources: utime ~4660s, stime ~129s, Rss ~212524, inblocks ~33627391, outblocks ~24625758
