
     Program PWSCF v.5.0.2 (svn rev. 9656) starts on  5Aug2015 at  3:16:17 

     This program is part of the open-source Quantum ESPRESSO suite
     for quantum simulation of materials; please cite
         "P. Giannozzi et al., J. Phys.:Condens. Matter 21 395502 (2009);
          URL http://www.quantum-espresso.org", 
     in publications or presentations arising from this work. More details at
     http://www.quantum-espresso.org/quote.php

     Parallel version (MPI & OpenMP), running on      48 processor cores
     Number of MPI processes:                48
     Threads/MPI process:                     1
     K-points division:     npool     =       4
     R & G space division:  proc/nbgrp/npool/nimage =      12
     wavefunctions fft division:  fft/group =       2

     Current dimensions of program PWSCF are:
     Max number of different atomic species (ntypx) = 10
     Max number of k-points (npk) =  40000
     Max angular momentum in pseudopotentials (lmaxx) =  3
     Reading input from Fe_110_2x2_scf.in
Warning: card  &CELL ignored
Warning: card    PRESS=0.0 ignored
Warning: card    PRESS_CONV_THR=0.1 ignored
Warning: card  / ignored
Warning: card S  32 S.PBE-N-KJPAW_PSL.0.1.UPF ignored
Warning: card H  1  H.PBE-KJPAW_PSL.0.1.UPF ignored

     IMPORTANT: XC functional enforced from input :
     Exchange-correlation      = PBE ( 1 4 3 4 0)
     EXX-fraction              =        0.00
     Any further DFT definition will be discarded
     Please, verify this is what you really want

               file Fe.pbe-spn-kjpaw_psl.0.2.1.UPF: wavefunction(s)  3D renormalized

     Subspace diagonalization in iterative solution of the eigenvalue problem:
     scalapack distributed-memory algorithm (size of sub-group:  2*  2 procs)

     Found symmetry operation: I + ( -0.0000  0.5000  0.0000)
     This is a supercell, fractional translations are disabled

   Task Groups are in USE
   groups and procs/group :     2    6
 
     Parallelization info
     --------------------
     sticks:   dense  smooth     PW     G-vecs:    dense   smooth      PW
     Min         429     203     57                99954    32713    4877
     Max         431     204     58                99959    32748    4892
     Sum        5161    2447    693              1199489   392779   58615
 


     bravais-lattice index     =            0
     lattice parameter (alat)  =       1.8897  a.u.
     unit-cell volume          =    3139.3349 (a.u.)^3
     number of atoms/cell      =           20
     number of atomic types    =            1
     number of electrons       =       320.00
     number of Kohn-Sham states=          192
     kinetic-energy cutoff     =      95.0000  Ry
     charge density cutoff     =     800.0000  Ry
     convergence threshold     =      1.0E-08
     mixing beta               =       0.5000
     number of iterations used =            8  local-TF  mixing
     Exchange-correlation      = PBE ( 1 4 3 4 0)
     EXX-fraction              =        0.00
     nstep                     =         1000


     celldm(1)=   1.889727  celldm(2)=   0.000000  celldm(3)=   0.000000
     celldm(4)=   0.000000  celldm(5)=   0.000000  celldm(6)=   0.000000

     crystal axes: (cart. coord. in units of alat)
               a(1) = (   4.906044   0.000000   0.000000 )  
               a(2) = (  -1.635348   4.625463   0.000000 )  
               a(3) = (   0.000000   0.000000  20.500000 )  

     reciprocal axes: (cart. coord. in units 2 pi/alat)
               b(1) = (  0.203830  0.072065  0.000000 )  
               b(2) = (  0.000000  0.216195  0.000000 )  
               b(3) = (  0.000000  0.000000  0.048780 )  


     PseudoPot. # 1 for Fe read from file:
     /work/e05/e05/ablar/QE_PSEUDO/Fe.pbe-spn-kjpaw_psl.0.2.1.UPF
     MD5 check sum: a0a08122d52b112de96d1da1d7dd020f
     Pseudo is Projector augmented-wave + core cor, Zval = 16.0
     Generated using "atomic" code by A. Dal Corso  v.5.0.2 svn rev. 9415
     Shape of augmentation charge: PSQ
     Using radial grid of 1191 points,  6 beta functions with: 
                l(1) =   0
                l(2) =   0
                l(3) =   1
                l(4) =   1
                l(5) =   2
                l(6) =   2
     Q(r) pseudized with 0 coefficients 


     atomic species   valence    mass     pseudopotential
        Fe            16.00    55.85000     Fe( 1.00)

     Starting magnetic structure 
     atomic species   magnetization
        Fe           0.600


     Simplified LDA+U calculation (l_max = 2) with parameters (eV):
     atomic species    L          U    alpha       J0     beta
        Fe             2     0.0000   0.0000   0.0000   0.0000



      2 Sym. Ops. (no inversion) found


                                    s                        frac. trans.

      isym =  1     identity                                     

 cryst.   s( 1) = (     1          0          0      )
                  (     0          1          0      )
                  (     0          0          1      )

 cart.    s( 1) = (  1.0000000  0.0000000  0.0000000 )
                  (  0.0000000  1.0000000  0.0000000 )
                  (  0.0000000  0.0000000  1.0000000 )


      isym =  2     180 deg rotation - cart. axis [0,0,1]        

 cryst.   s( 2) = (    -1          0          0      )
                  (     0         -1          0      )
                  (     0          0          1      )

 cart.    s( 2) = ( -1.0000000  0.0000000  0.0000000 )
                  (  0.0000000 -1.0000000  0.0000000 )
                  (  0.0000000  0.0000000  1.0000000 )


     point group C_2  (2)   
     there are  2 classes
     the character table:

       E     C2   
A      1.00  1.00
B      1.00 -1.00

     the symmetry operations in each class:
     E        1
     C2       2

   Cartesian axes

     site n.     atom                  positions (alat units)
         1           Fe  tau(   1) = (   0.0000000   0.0000000  -4.0057668  )
         2           Fe  tau(   2) = (  -0.8176737   2.3127306  -4.0057668  )
         3           Fe  tau(   3) = (   2.4530212   0.0000000  -4.0057668  )
         4           Fe  tau(   4) = (  -3.2706949   2.3127306  -4.0057668  )
         5           Fe  tau(   5) = (   0.8176737   1.1563653  -2.0028834  )
         6           Fe  tau(   6) = (  -0.8176737  -1.1563653  -2.0028834  )
         7           Fe  tau(   7) = (   1.6353475  -1.1563653  -2.0028834  )
         8           Fe  tau(   8) = (  -1.6353475   1.1563653  -2.0028834  )
         9           Fe  tau(   9) = (   0.0000000   0.0000000   0.0000000  )
        10           Fe  tau(  10) = (  -0.8176737   2.3127306   0.0000000  )
        11           Fe  tau(  11) = (   2.4530212   0.0000000   0.0000000  )
        12           Fe  tau(  12) = (  -3.2706949   2.3127306   0.0000000  )
        13           Fe  tau(  13) = (   0.8176743   1.1563657   1.9804250  )
        14           Fe  tau(  14) = (  -0.8176743  -1.1563657   1.9804250  )
        15           Fe  tau(  15) = (   1.6353479  -1.1563660   1.9804344  )
        16           Fe  tau(  16) = (  -1.6353479   1.1563660   1.9804344  )
        17           Fe  tau(  17) = (   0.0000000   0.0000000   3.9733457  )
        18           Fe  tau(  18) = (  -0.8176737   2.3127306   3.9733505  )
        19           Fe  tau(  19) = (   2.4530212   0.0000000   3.9733508  )
        20           Fe  tau(  20) = (  -3.2706949   2.3127306   3.9733470  )

   Crystallographic axes

     site n.     atom                  positions (cryst. coord.)
         1           Fe  tau(   1) = (  0.0000000  0.0000000 -0.1954033  )
         2           Fe  tau(   2) = ( -0.0000000  0.4999998 -0.1954033  )
         3           Fe  tau(   3) = (  0.4999998  0.0000000 -0.1954033  )
         4           Fe  tau(   4) = ( -0.4999998  0.4999998 -0.1954033  )
         5           Fe  tau(   5) = (  0.2499999  0.2499999 -0.0977016  )
         6           Fe  tau(   6) = ( -0.2499999 -0.2499999 -0.0977016  )
         7           Fe  tau(   7) = (  0.2499999 -0.2499999 -0.0977016  )
         8           Fe  tau(   8) = ( -0.2499999  0.2499999 -0.0977016  )
         9           Fe  tau(   9) = (  0.0000000  0.0000000  0.0000000  )
        10           Fe  tau(  10) = ( -0.0000000  0.4999998  0.0000000  )
        11           Fe  tau(  11) = (  0.4999998  0.0000000  0.0000000  )
        12           Fe  tau(  12) = ( -0.4999998  0.4999998  0.0000000  )
        13           Fe  tau(  13) = (  0.2500001  0.2500000  0.0966061  )
        14           Fe  tau(  14) = ( -0.2500001 -0.2500000  0.0966061  )
        15           Fe  tau(  15) = (  0.2499999 -0.2500001  0.0966066  )
        16           Fe  tau(  16) = ( -0.2499999  0.2500001  0.0966066  )
        17           Fe  tau(  17) = (  0.0000000  0.0000000  0.1938217  )
        18           Fe  tau(  18) = ( -0.0000000  0.4999998  0.1938220  )
        19           Fe  tau(  19) = (  0.4999998  0.0000000  0.1938220  )
        20           Fe  tau(  20) = ( -0.4999998  0.4999998  0.1938218  )

     number of k points=    20  Marzari-Vanderbilt smearing, width (Ry)=  0.0400
                       cart. coord. in units 2pi/alat
        k(    1) = (   0.0000000   0.0000000   0.0000000), wk =   0.0625000
        k(    2) = (   0.0000000   0.0540486   0.0000000), wk =   0.1250000
        k(    3) = (   0.0000000  -0.1080973   0.0000000), wk =   0.0625000
        k(    4) = (   0.0509576   0.0180162   0.0000000), wk =   0.1250000
        k(    5) = (   0.0509576   0.0720649   0.0000000), wk =   0.1250000
        k(    6) = (   0.0509576  -0.0900811   0.0000000), wk =   0.1250000
        k(    7) = (   0.0509576  -0.0360324   0.0000000), wk =   0.1250000
        k(    8) = (  -0.1019151  -0.0360324   0.0000000), wk =   0.0625000
        k(    9) = (  -0.1019151   0.0180162   0.0000000), wk =   0.1250000
        k(   10) = (  -0.1019151  -0.1441297   0.0000000), wk =   0.0625000
        k(   11) = (   0.0000000   0.0000000   0.0000000), wk =   0.0625000
        k(   12) = (   0.0000000   0.0540486   0.0000000), wk =   0.1250000
        k(   13) = (   0.0000000  -0.1080973   0.0000000), wk =   0.0625000
        k(   14) = (   0.0509576   0.0180162   0.0000000), wk =   0.1250000
        k(   15) = (   0.0509576   0.0720649   0.0000000), wk =   0.1250000
        k(   16) = (   0.0509576  -0.0900811   0.0000000), wk =   0.1250000
        k(   17) = (   0.0509576  -0.0360324   0.0000000), wk =   0.1250000
        k(   18) = (  -0.1019151  -0.0360324   0.0000000), wk =   0.0625000
        k(   19) = (  -0.1019151   0.0180162   0.0000000), wk =   0.1250000
        k(   20) = (  -0.1019151  -0.1441297   0.0000000), wk =   0.0625000

                       cryst. coord.
        k(    1) = (   0.0000000   0.0000000   0.0000000), wk =   0.0625000
        k(    2) = (   0.0000000   0.2500000   0.0000000), wk =   0.1250000
        k(    3) = (   0.0000000  -0.5000000   0.0000000), wk =   0.0625000
        k(    4) = (   0.2500000   0.0000000   0.0000000), wk =   0.1250000
        k(    5) = (   0.2500000   0.2500000   0.0000000), wk =   0.1250000
        k(    6) = (   0.2500000  -0.5000000   0.0000000), wk =   0.1250000
        k(    7) = (   0.2500000  -0.2500000   0.0000000), wk =   0.1250000
        k(    8) = (  -0.5000000  -0.0000000   0.0000000), wk =   0.0625000
        k(    9) = (  -0.5000000   0.2500000   0.0000000), wk =   0.1250000
        k(   10) = (  -0.5000000  -0.5000000   0.0000000), wk =   0.0625000
        k(   11) = (   0.0000000   0.0000000   0.0000000), wk =   0.0625000
        k(   12) = (   0.0000000   0.2500000   0.0000000), wk =   0.1250000
        k(   13) = (   0.0000000  -0.5000000   0.0000000), wk =   0.0625000
        k(   14) = (   0.2500000   0.0000000   0.0000000), wk =   0.1250000
        k(   15) = (   0.2500000   0.2500000   0.0000000), wk =   0.1250000
        k(   16) = (   0.2500000  -0.5000000   0.0000000), wk =   0.1250000
        k(   17) = (   0.2500000  -0.2500000   0.0000000), wk =   0.1250000
        k(   18) = (  -0.5000000  -0.0000000   0.0000000), wk =   0.0625000
        k(   19) = (  -0.5000000   0.2500000   0.0000000), wk =   0.1250000
        k(   20) = (  -0.5000000  -0.5000000   0.0000000), wk =   0.0625000

     Dense  grid:  1199489 G-vectors     FFT dimensions: (  90,  90, 360)

     Smooth grid:   392779 G-vectors     FFT dimensions: (  60,  60, 243)

     Largest allocated arrays     est. size (Mb)     dimensions
        Kohn-Sham Wavefunctions        12.39 Mb     (   4230,  192)
        Atomic wavefunctions           16.78 Mb     (   4230,  260)
        NL pseudopotentials            23.24 Mb     (   4230,  360)
        Each V/rho on FFT grid          7.42 Mb     ( 243000,   2)
        Each G-vector array             0.76 Mb     (  99959)
        G-vector shells                 0.31 Mb     (  40422)
     Largest temporary arrays     est. size (Mb)     dimensions
        Auxiliary wavefunctions        49.57 Mb     (   4230,  768)
        Each subspace H/S matrix        2.25 Mb     ( 384, 384)
        Each <psi_i|beta_j> matrix      1.05 Mb     (    360,  192)
        Arrays for rho mixing          29.66 Mb     ( 243000,   8)

     Check: negative/imaginary core charge=   -0.000012    0.000000

     Initial potential from superposition of free atoms

     starting charge  319.99123, renormalised to  320.00000

     negative rho (up, down):  0.361E-04 0.902E-05
 --- in v_hubbard ---
Hubbard energy    0.0000
 -------
     Number of +U iterations with fixed ns =  0
     Starting occupations:
 --- enter write_ns ---
 LDA+U parameters:
U( 1)     =  0.00000000
alpha( 1) =  0.00000000
atom    1   Tr[ns(na)] (up, down, total) =   5.00000  1.00000  6.00000
   spin  1
    eigenvalues: 
  1.000  1.000  1.000  1.000  1.000
    eigenvectors:
  1.000  0.000  0.000  0.000  0.000
  0.000  1.000  0.000  0.000  0.000
  0.000  0.000  1.000  0.000  0.000
  0.000  0.000  0.000  1.000  0.000
  0.000  0.000  0.000  0.000  1.000
    occupations:
  1.000  0.000  0.000  0.000  0.000
  0.000  1.000  0.000  0.000  0.000
  0.000  0.000  1.000  0.000  0.000
  0.000  0.000  0.000  1.000  0.000
  0.000  0.000  0.000  0.000  1.000
   spin  2
    eigenvalues: 
  0.200  0.200  0.200  0.200  0.200
    eigenvectors:
  1.000  0.000  0.000  0.000  0.000
  0.000  1.000  0.000  0.000  0.000
  0.000  0.000  1.000  0.000  0.000
  0.000  0.000  0.000  1.000  0.000
  0.000  0.000  0.000  0.000  1.000
    occupations:
  0.200  0.000  0.000  0.000  0.000
  0.000  0.200  0.000  0.000  0.000
  0.000  0.000  0.200  0.000  0.000
  0.000  0.000  0.000  0.200  0.000
  0.000  0.000  0.000  0.000  0.200
atomic mag. moment =     4.000000
atom    2   Tr[ns(na)] (up, down, total) =   5.00000  1.00000  6.00000
   spin  1
    eigenvalues: 
  1.000  1.000  1.000  1.000  1.000
    eigenvectors:
  1.000  0.000  0.000  0.000  0.000
  0.000  1.000  0.000  0.000  0.000
  0.000  0.000  1.000  0.000  0.000
  0.000  0.000  0.000  1.000  0.000
  0.000  0.000  0.000  0.000  1.000
    occupations:
  1.000  0.000  0.000  0.000  0.000
  0.000  1.000  0.000  0.000  0.000
  0.000  0.000  1.000  0.000  0.000
  0.000  0.000  0.000  1.000  0.000
  0.000  0.000  0.000  0.000  1.000
   spin  2
    eigenvalues: 
  0.200  0.200  0.200  0.200  0.200
    eigenvectors:
  1.000  0.000  0.000  0.000  0.000
  0.000  1.000  0.000  0.000  0.000
  0.000  0.000  1.000  0.000  0.000
  0.000  0.000  0.000  1.000  0.000
  0.000  0.000  0.000  0.000  1.000
    occupations:
  0.200  0.000  0.000  0.000  0.000
  0.000  0.200  0.000  0.000  0.000
  0.000  0.000  0.200  0.000  0.000
  0.000  0.000  0.000  0.200  0.000
  0.000  0.000  0.000  0.000  0.200
atomic mag. moment =     4.000000
atom    3   Tr[ns(na)] (up, down, total) =   5.00000  1.00000  6.00000
   spin  1
    eigenvalues: 
  1.000  1.000  1.000  1.000  1.000
    eigenvectors:
  1.000  0.000  0.000  0.000  0.000
  0.000  1.000  0.000  0.000  0.000
  0.000  0.000  1.000  0.000  0.000
  0.000  0.000  0.000  1.000  0.000
  0.000  0.000  0.000  0.000  1.000
    occupations:
  1.000  0.000  0.000  0.000  0.000
  0.000  1.000  0.000  0.000  0.000
  0.000  0.000  1.000  0.000  0.000
  0.000  0.000  0.000  1.000  0.000
  0.000  0.000  0.000  0.000  1.000
   spin  2
    eigenvalues: 
  0.200  0.200  0.200  0.200  0.200
    eigenvectors:
  1.000  0.000  0.000  0.000  0.000
  0.000  1.000  0.000  0.000  0.000
  0.000  0.000  1.000  0.000  0.000
  0.000  0.000  0.000  1.000  0.000
  0.000  0.000  0.000  0.000  1.000
    occupations:
  0.200  0.000  0.000  0.000  0.000
  0.000  0.200  0.000  0.000  0.000
  0.000  0.000  0.200  0.000  0.000
  0.000  0.000  0.000  0.200  0.000
  0.000  0.000  0.000  0.000  0.200
atomic mag. moment =     4.000000
atom    4   Tr[ns(na)] (up, down, total) =   5.00000  1.00000  6.00000
   spin  1
    eigenvalues: 
  1.000  1.000  1.000  1.000  1.000
    eigenvectors:
  1.000  0.000  0.000  0.000  0.000
  0.000  1.000  0.000  0.000  0.000
  0.000  0.000  1.000  0.000  0.000
  0.000  0.000  0.000  1.000  0.000
  0.000  0.000  0.000  0.000  1.000
    occupations:
  1.000  0.000  0.000  0.000  0.000
  0.000  1.000  0.000  0.000  0.000
  0.000  0.000  1.000  0.000  0.000
  0.000  0.000  0.000  1.000  0.000
  0.000  0.000  0.000  0.000  1.000
   spin  2
    eigenvalues: 
  0.200  0.200  0.200  0.200  0.200
    eigenvectors:
  1.000  0.000  0.000  0.000  0.000
  0.000  1.000  0.000  0.000  0.000
  0.000  0.000  1.000  0.000  0.000
  0.000  0.000  0.000  1.000  0.000
  0.000  0.000  0.000  0.000  1.000
    occupations:
  0.200  0.000  0.000  0.000  0.000
  0.000  0.200  0.000  0.000  0.000
  0.000  0.000  0.200  0.000  0.000
  0.000  0.000  0.000  0.200  0.000
  0.000  0.000  0.000  0.000  0.200
atomic mag. moment =     4.000000
atom    5   Tr[ns(na)] (up, down, total) =   5.00000  1.00000  6.00000
   spin  1
    eigenvalues: 
  1.000  1.000  1.000  1.000  1.000
    eigenvectors:
  1.000  0.000  0.000  0.000  0.000
  0.000  1.000  0.000  0.000  0.000
  0.000  0.000  1.000  0.000  0.000
  0.000  0.000  0.000  1.000  0.000
  0.000  0.000  0.000  0.000  1.000
    occupations:
  1.000  0.000  0.000  0.000  0.000
  0.000  1.000  0.000  0.000  0.000
  0.000  0.000  1.000  0.000  0.000
  0.000  0.000  0.000  1.000  0.000
  0.000  0.000  0.000  0.000  1.000
   spin  2
    eigenvalues: 
  0.200  0.200  0.200  0.200  0.200
    eigenvectors:
  1.000  0.000  0.000  0.000  0.000
  0.000  1.000  0.000  0.000  0.000
  0.000  0.000  1.000  0.000  0.000
  0.000  0.000  0.000  1.000  0.000
  0.000  0.000  0.000  0.000  1.000
    occupations:
  0.200  0.000  0.000  0.000  0.000
  0.000  0.200  0.000  0.000  0.000
  0.000  0.000  0.200  0.000  0.000
  0.000  0.000  0.000  0.200  0.000
  0.000  0.000  0.000  0.000  0.200
atomic mag. moment =     4.000000
atom    6   Tr[ns(na)] (up, down, total) =   5.00000  1.00000  6.00000
   spin  1
    eigenvalues: 
  1.000  1.000  1.000  1.000  1.000
    eigenvectors:
  1.000  0.000  0.000  0.000  0.000
  0.000  1.000  0.000  0.000  0.000
  0.000  0.000  1.000  0.000  0.000
  0.000  0.000  0.000  1.000  0.000
  0.000  0.000  0.000  0.000  1.000
    occupations:
  1.000  0.000  0.000  0.000  0.000
  0.000  1.000  0.000  0.000  0.000
  0.000  0.000  1.000  0.000  0.000
  0.000  0.000  0.000  1.000  0.000
  0.000  0.000  0.000  0.000  1.000
   spin  2
    eigenvalues: 
  0.200  0.200  0.200  0.200  0.200
    eigenvectors:
  1.000  0.000  0.000  0.000  0.000
  0.000  1.000  0.000  0.000  0.000
  0.000  0.000  1.000  0.000  0.000
  0.000  0.000  0.000  1.000  0.000
  0.000  0.000  0.000  0.000  1.000
    occupations:
  0.200  0.000  0.000  0.000  0.000
  0.000  0.200  0.000  0.000  0.000
  0.000  0.000  0.200  0.000  0.000
  0.000  0.000  0.000  0.200  0.000
  0.000  0.000  0.000  0.000  0.200
atomic mag. moment =     4.000000
atom    7   Tr[ns(na)] (up, down, total) =   5.00000  1.00000  6.00000
   spin  1
    eigenvalues: 
  1.000  1.000  1.000  1.000  1.000
    eigenvectors:
  1.000  0.000  0.000  0.000  0.000
  0.000  1.000  0.000  0.000  0.000
  0.000  0.000  1.000  0.000  0.000
  0.000  0.000  0.000  1.000  0.000
  0.000  0.000  0.000  0.000  1.000
    occupations:
  1.000  0.000  0.000  0.000  0.000
  0.000  1.000  0.000  0.000  0.000
  0.000  0.000  1.000  0.000  0.000
  0.000  0.000  0.000  1.000  0.000
  0.000  0.000  0.000  0.000  1.000
   spin  2
    eigenvalues: 
  0.200  0.200  0.200  0.200  0.200
    eigenvectors:
  1.000  0.000  0.000  0.000  0.000
  0.000  1.000  0.000  0.000  0.000
  0.000  0.000  1.000  0.000  0.000
  0.000  0.000  0.000  1.000  0.000
  0.000  0.000  0.000  0.000  1.000
    occupations:
  0.200  0.000  0.000  0.000  0.000
  0.000  0.200  0.000  0.000  0.000
  0.000  0.000  0.200  0.000  0.000
  0.000  0.000  0.000  0.200  0.000
  0.000  0.000  0.000  0.000  0.200
atomic mag. moment =     4.000000
atom    8   Tr[ns(na)] (up, down, total) =   5.00000  1.00000  6.00000
   spin  1
    eigenvalues: 
  1.000  1.000  1.000  1.000  1.000
    eigenvectors:
  1.000  0.000  0.000  0.000  0.000
  0.000  1.000  0.000  0.000  0.000
  0.000  0.000  1.000  0.000  0.000
  0.000  0.000  0.000  1.000  0.000
  0.000  0.000  0.000  0.000  1.000
    occupations:
  1.000  0.000  0.000  0.000  0.000
  0.000  1.000  0.000  0.000  0.000
  0.000  0.000  1.000  0.000  0.000
  0.000  0.000  0.000  1.000  0.000
  0.000  0.000  0.000  0.000  1.000
   spin  2
    eigenvalues: 
  0.200  0.200  0.200  0.200  0.200
    eigenvectors:
  1.000  0.000  0.000  0.000  0.000
  0.000  1.000  0.000  0.000  0.000
  0.000  0.000  1.000  0.000  0.000
  0.000  0.000  0.000  1.000  0.000
  0.000  0.000  0.000  0.000  1.000
    occupations:
  0.200  0.000  0.000  0.000  0.000
  0.000  0.200  0.000  0.000  0.000
  0.000  0.000  0.200  0.000  0.000
  0.000  0.000  0.000  0.200  0.000
  0.000  0.000  0.000  0.000  0.200
atomic mag. moment =     4.000000
atom    9   Tr[ns(na)] (up, down, total) =   5.00000  1.00000  6.00000
   spin  1
    eigenvalues: 
  1.000  1.000  1.000  1.000  1.000
    eigenvectors:
  1.000  0.000  0.000  0.000  0.000
  0.000  1.000  0.000  0.000  0.000
  0.000  0.000  1.000  0.000  0.000
  0.000  0.000  0.000  1.000  0.000
  0.000  0.000  0.000  0.000  1.000
    occupations:
  1.000  0.000  0.000  0.000  0.000
  0.000  1.000  0.000  0.000  0.000
  0.000  0.000  1.000  0.000  0.000
  0.000  0.000  0.000  1.000  0.000
  0.000  0.000  0.000  0.000  1.000
   spin  2
    eigenvalues: 
  0.200  0.200  0.200  0.200  0.200
    eigenvectors:
  1.000  0.000  0.000  0.000  0.000
  0.000  1.000  0.000  0.000  0.000
  0.000  0.000  1.000  0.000  0.000
  0.000  0.000  0.000  1.000  0.000
  0.000  0.000  0.000  0.000  1.000
    occupations:
  0.200  0.000  0.000  0.000  0.000
  0.000  0.200  0.000  0.000  0.000
  0.000  0.000  0.200  0.000  0.000
  0.000  0.000  0.000  0.200  0.000
  0.000  0.000  0.000  0.000  0.200
atomic mag. moment =     4.000000
atom   10   Tr[ns(na)] (up, down, total) =   5.00000  1.00000  6.00000
   spin  1
    eigenvalues: 
  1.000  1.000  1.000  1.000  1.000
    eigenvectors:
  1.000  0.000  0.000  0.000  0.000
  0.000  1.000  0.000  0.000  0.000
  0.000  0.000  1.000  0.000  0.000
  0.000  0.000  0.000  1.000  0.000
  0.000  0.000  0.000  0.000  1.000
    occupations:
  1.000  0.000  0.000  0.000  0.000
  0.000  1.000  0.000  0.000  0.000
  0.000  0.000  1.000  0.000  0.000
  0.000  0.000  0.000  1.000  0.000
  0.000  0.000  0.000  0.000  1.000
   spin  2
    eigenvalues: 
  0.200  0.200  0.200  0.200  0.200
    eigenvectors:
  1.000  0.000  0.000  0.000  0.000
  0.000  1.000  0.000  0.000  0.000
  0.000  0.000  1.000  0.000  0.000
  0.000  0.000  0.000  1.000  0.000
  0.000  0.000  0.000  0.000  1.000
    occupations:
  0.200  0.000  0.000  0.000  0.000
  0.000  0.200  0.000  0.000  0.000
  0.000  0.000  0.200  0.000  0.000
  0.000  0.000  0.000  0.200  0.000
  0.000  0.000  0.000  0.000  0.200
atomic mag. moment =     4.000000
atom   11   Tr[ns(na)] (up, down, total) =   5.00000  1.00000  6.00000
   spin  1
    eigenvalues: 
  1.000  1.000  1.000  1.000  1.000
    eigenvectors:
  1.000  0.000  0.000  0.000  0.000
  0.000  1.000  0.000  0.000  0.000
  0.000  0.000  1.000  0.000  0.000
  0.000  0.000  0.000  1.000  0.000
  0.000  0.000  0.000  0.000  1.000
    occupations:
  1.000  0.000  0.000  0.000  0.000
  0.000  1.000  0.000  0.000  0.000
  0.000  0.000  1.000  0.000  0.000
  0.000  0.000  0.000  1.000  0.000
  0.000  0.000  0.000  0.000  1.000
   spin  2
    eigenvalues: 
  0.200  0.200  0.200  0.200  0.200
    eigenvectors:
  1.000  0.000  0.000  0.000  0.000
  0.000  1.000  0.000  0.000  0.000
  0.000  0.000  1.000  0.000  0.000
  0.000  0.000  0.000  1.000  0.000
  0.000  0.000  0.000  0.000  1.000
    occupations:
  0.200  0.000  0.000  0.000  0.000
  0.000  0.200  0.000  0.000  0.000
  0.000  0.000  0.200  0.000  0.000
  0.000  0.000  0.000  0.200  0.000
  0.000  0.000  0.000  0.000  0.200
atomic mag. moment =     4.000000
atom   12   Tr[ns(na)] (up, down, total) =   5.00000  1.00000  6.00000
   spin  1
    eigenvalues: 
  1.000  1.000  1.000  1.000  1.000
    eigenvectors:
  1.000  0.000  0.000  0.000  0.000
  0.000  1.000  0.000  0.000  0.000
  0.000  0.000  1.000  0.000  0.000
  0.000  0.000  0.000  1.000  0.000
  0.000  0.000  0.000  0.000  1.000
    occupations:
  1.000  0.000  0.000  0.000  0.000
  0.000  1.000  0.000  0.000  0.000
  0.000  0.000  1.000  0.000  0.000
  0.000  0.000  0.000  1.000  0.000
  0.000  0.000  0.000  0.000  1.000
   spin  2
    eigenvalues: 
  0.200  0.200  0.200  0.200  0.200
    eigenvectors:
  1.000  0.000  0.000  0.000  0.000
  0.000  1.000  0.000  0.000  0.000
  0.000  0.000  1.000  0.000  0.000
  0.000  0.000  0.000  1.000  0.000
  0.000  0.000  0.000  0.000  1.000
    occupations:
  0.200  0.000  0.000  0.000  0.000
  0.000  0.200  0.000  0.000  0.000
  0.000  0.000  0.200  0.000  0.000
  0.000  0.000  0.000  0.200  0.000
  0.000  0.000  0.000  0.000  0.200
atomic mag. moment =     4.000000
atom   13   Tr[ns(na)] (up, down, total) =   5.00000  1.00000  6.00000
   spin  1
    eigenvalues: 
  1.000  1.000  1.000  1.000  1.000
    eigenvectors:
  1.000  0.000  0.000  0.000  0.000
  0.000  1.000  0.000  0.000  0.000
  0.000  0.000  1.000  0.000  0.000
  0.000  0.000  0.000  1.000  0.000
  0.000  0.000  0.000  0.000  1.000
    occupations:
  1.000  0.000  0.000  0.000  0.000
  0.000  1.000  0.000  0.000  0.000
  0.000  0.000  1.000  0.000  0.000
  0.000  0.000  0.000  1.000  0.000
  0.000  0.000  0.000  0.000  1.000
   spin  2
    eigenvalues: 
  0.200  0.200  0.200  0.200  0.200
    eigenvectors:
  1.000  0.000  0.000  0.000  0.000
  0.000  1.000  0.000  0.000  0.000
  0.000  0.000  1.000  0.000  0.000
  0.000  0.000  0.000  1.000  0.000
  0.000  0.000  0.000  0.000  1.000
    occupations:
  0.200  0.000  0.000  0.000  0.000
  0.000  0.200  0.000  0.000  0.000
  0.000  0.000  0.200  0.000  0.000
  0.000  0.000  0.000  0.200  0.000
  0.000  0.000  0.000  0.000  0.200
atomic mag. moment =     4.000000
atom   14   Tr[ns(na)] (up, down, total) =   5.00000  1.00000  6.00000
   spin  1
    eigenvalues: 
  1.000  1.000  1.000  1.000  1.000
    eigenvectors:
  1.000  0.000  0.000  0.000  0.000
  0.000  1.000  0.000  0.000  0.000
  0.000  0.000  1.000  0.000  0.000
  0.000  0.000  0.000  1.000  0.000
  0.000  0.000  0.000  0.000  1.000
    occupations:
  1.000  0.000  0.000  0.000  0.000
  0.000  1.000  0.000  0.000  0.000
  0.000  0.000  1.000  0.000  0.000
  0.000  0.000  0.000  1.000  0.000
  0.000  0.000  0.000  0.000  1.000
   spin  2
    eigenvalues: 
  0.200  0.200  0.200  0.200  0.200
    eigenvectors:
  1.000  0.000  0.000  0.000  0.000
  0.000  1.000  0.000  0.000  0.000
  0.000  0.000  1.000  0.000  0.000
  0.000  0.000  0.000  1.000  0.000
  0.000  0.000  0.000  0.000  1.000
    occupations:
  0.200  0.000  0.000  0.000  0.000
  0.000  0.200  0.000  0.000  0.000
  0.000  0.000  0.200  0.000  0.000
  0.000  0.000  0.000  0.200  0.000
  0.000  0.000  0.000  0.000  0.200
atomic mag. moment =     4.000000
atom   15   Tr[ns(na)] (up, down, total) =   5.00000  1.00000  6.00000
   spin  1
    eigenvalues: 
  1.000  1.000  1.000  1.000  1.000
    eigenvectors:
  1.000  0.000  0.000  0.000  0.000
  0.000  1.000  0.000  0.000  0.000
  0.000  0.000  1.000  0.000  0.000
  0.000  0.000  0.000  1.000  0.000
  0.000  0.000  0.000  0.000  1.000
    occupations:
  1.000  0.000  0.000  0.000  0.000
  0.000  1.000  0.000  0.000  0.000
  0.000  0.000  1.000  0.000  0.000
  0.000  0.000  0.000  1.000  0.000
  0.000  0.000  0.000  0.000  1.000
   spin  2
    eigenvalues: 
  0.200  0.200  0.200  0.200  0.200
    eigenvectors:
  1.000  0.000  0.000  0.000  0.000
  0.000  1.000  0.000  0.000  0.000
  0.000  0.000  1.000  0.000  0.000
  0.000  0.000  0.000  1.000  0.000
  0.000  0.000  0.000  0.000  1.000
    occupations:
  0.200  0.000  0.000  0.000  0.000
  0.000  0.200  0.000  0.000  0.000
  0.000  0.000  0.200  0.000  0.000
  0.000  0.000  0.000  0.200  0.000
  0.000  0.000  0.000  0.000  0.200
atomic mag. moment =     4.000000
atom   16   Tr[ns(na)] (up, down, total) =   5.00000  1.00000  6.00000
   spin  1
    eigenvalues: 
  1.000  1.000  1.000  1.000  1.000
    eigenvectors:
  1.000  0.000  0.000  0.000  0.000
  0.000  1.000  0.000  0.000  0.000
  0.000  0.000  1.000  0.000  0.000
  0.000  0.000  0.000  1.000  0.000
  0.000  0.000  0.000  0.000  1.000
    occupations:
  1.000  0.000  0.000  0.000  0.000
  0.000  1.000  0.000  0.000  0.000
  0.000  0.000  1.000  0.000  0.000
  0.000  0.000  0.000  1.000  0.000
  0.000  0.000  0.000  0.000  1.000
   spin  2
    eigenvalues: 
  0.200  0.200  0.200  0.200  0.200
    eigenvectors:
  1.000  0.000  0.000  0.000  0.000
  0.000  1.000  0.000  0.000  0.000
  0.000  0.000  1.000  0.000  0.000
  0.000  0.000  0.000  1.000  0.000
  0.000  0.000  0.000  0.000  1.000
    occupations:
  0.200  0.000  0.000  0.000  0.000
  0.000  0.200  0.000  0.000  0.000
  0.000  0.000  0.200  0.000  0.000
  0.000  0.000  0.000  0.200  0.000
  0.000  0.000  0.000  0.000  0.200
atomic mag. moment =     4.000000
atom   17   Tr[ns(na)] (up, down, total) =   5.00000  1.00000  6.00000
   spin  1
    eigenvalues: 
  1.000  1.000  1.000  1.000  1.000
    eigenvectors:
  1.000  0.000  0.000  0.000  0.000
  0.000  1.000  0.000  0.000  0.000
  0.000  0.000  1.000  0.000  0.000
  0.000  0.000  0.000  1.000  0.000
  0.000  0.000  0.000  0.000  1.000
    occupations:
  1.000  0.000  0.000  0.000  0.000
  0.000  1.000  0.000  0.000  0.000
  0.000  0.000  1.000  0.000  0.000
  0.000  0.000  0.000  1.000  0.000
  0.000  0.000  0.000  0.000  1.000
   spin  2
    eigenvalues: 
  0.200  0.200  0.200  0.200  0.200
    eigenvectors:
  1.000  0.000  0.000  0.000  0.000
  0.000  1.000  0.000  0.000  0.000
  0.000  0.000  1.000  0.000  0.000
  0.000  0.000  0.000  1.000  0.000
  0.000  0.000  0.000  0.000  1.000
    occupations:
  0.200  0.000  0.000  0.000  0.000
  0.000  0.200  0.000  0.000  0.000
  0.000  0.000  0.200  0.000  0.000
  0.000  0.000  0.000  0.200  0.000
  0.000  0.000  0.000  0.000  0.200
atomic mag. moment =     4.000000
atom   18   Tr[ns(na)] (up, down, total) =   5.00000  1.00000  6.00000
   spin  1
    eigenvalues: 
  1.000  1.000  1.000  1.000  1.000
    eigenvectors:
  1.000  0.000  0.000  0.000  0.000
  0.000  1.000  0.000  0.000  0.000
  0.000  0.000  1.000  0.000  0.000
  0.000  0.000  0.000  1.000  0.000
  0.000  0.000  0.000  0.000  1.000
    occupations:
  1.000  0.000  0.000  0.000  0.000
  0.000  1.000  0.000  0.000  0.000
  0.000  0.000  1.000  0.000  0.000
  0.000  0.000  0.000  1.000  0.000
  0.000  0.000  0.000  0.000  1.000
   spin  2
    eigenvalues: 
  0.200  0.200  0.200  0.200  0.200
    eigenvectors:
  1.000  0.000  0.000  0.000  0.000
  0.000  1.000  0.000  0.000  0.000
  0.000  0.000  1.000  0.000  0.000
  0.000  0.000  0.000  1.000  0.000
  0.000  0.000  0.000  0.000  1.000
    occupations:
  0.200  0.000  0.000  0.000  0.000
  0.000  0.200  0.000  0.000  0.000
  0.000  0.000  0.200  0.000  0.000
  0.000  0.000  0.000  0.200  0.000
  0.000  0.000  0.000  0.000  0.200
atomic mag. moment =     4.000000
atom   19   Tr[ns(na)] (up, down, total) =   5.00000  1.00000  6.00000
   spin  1
    eigenvalues: 
  1.000  1.000  1.000  1.000  1.000
    eigenvectors:
  1.000  0.000  0.000  0.000  0.000
  0.000  1.000  0.000  0.000  0.000
  0.000  0.000  1.000  0.000  0.000
  0.000  0.000  0.000  1.000  0.000
  0.000  0.000  0.000  0.000  1.000
    occupations:
  1.000  0.000  0.000  0.000  0.000
  0.000  1.000  0.000  0.000  0.000
  0.000  0.000  1.000  0.000  0.000
  0.000  0.000  0.000  1.000  0.000
  0.000  0.000  0.000  0.000  1.000
   spin  2
    eigenvalues: 
  0.200  0.200  0.200  0.200  0.200
    eigenvectors:
  1.000  0.000  0.000  0.000  0.000
  0.000  1.000  0.000  0.000  0.000
  0.000  0.000  1.000  0.000  0.000
  0.000  0.000  0.000  1.000  0.000
  0.000  0.000  0.000  0.000  1.000
    occupations:
  0.200  0.000  0.000  0.000  0.000
  0.000  0.200  0.000  0.000  0.000
  0.000  0.000  0.200  0.000  0.000
  0.000  0.000  0.000  0.200  0.000
  0.000  0.000  0.000  0.000  0.200
atomic mag. moment =     4.000000
atom   20   Tr[ns(na)] (up, down, total) =   5.00000  1.00000  6.00000
   spin  1
    eigenvalues: 
  1.000  1.000  1.000  1.000  1.000
    eigenvectors:
  1.000  0.000  0.000  0.000  0.000
  0.000  1.000  0.000  0.000  0.000
  0.000  0.000  1.000  0.000  0.000
  0.000  0.000  0.000  1.000  0.000
  0.000  0.000  0.000  0.000  1.000
    occupations:
  1.000  0.000  0.000  0.000  0.000
  0.000  1.000  0.000  0.000  0.000
  0.000  0.000  1.000  0.000  0.000
  0.000  0.000  0.000  1.000  0.000
  0.000  0.000  0.000  0.000  1.000
   spin  2
    eigenvalues: 
  0.200  0.200  0.200  0.200  0.200
    eigenvectors:
  1.000  0.000  0.000  0.000  0.000
  0.000  1.000  0.000  0.000  0.000
  0.000  0.000  1.000  0.000  0.000
  0.000  0.000  0.000  1.000  0.000
  0.000  0.000  0.000  0.000  1.000
    occupations:
  0.200  0.000  0.000  0.000  0.000
  0.000  0.200  0.000  0.000  0.000
  0.000  0.000  0.200  0.000  0.000
  0.000  0.000  0.000  0.200  0.000
  0.000  0.000  0.000  0.000  0.200
atomic mag. moment =     4.000000
N of occupied +U levels = 120.0000000
 --- exit write_ns ---
 Atomic wfc used for LDA+U Projector are NOT orthogonalized
     Starting wfc are  260 randomized atomic wfcs
     Checking if some PAW data can be deallocated... 

     total cpu time spent up to now is      158.7 secs

     per-process dynamical memory:   350.7 Mb

     Self-consistent Calculation

     iteration #  1     ecut=    95.00 Ry     beta=0.50
     Davidson diagonalization with overlap
     ethr =  1.00E-02,  avg # of iterations =  3.0
 --- enter write_ns ---
 LDA+U parameters:
U( 1)     =  0.00000000
alpha( 1) =  0.00000000
atom    1   Tr[ns(na)] (up, down, total) =   4.96975  1.37771  6.34747
   spin  1
    eigenvalues: 
  0.991  0.994  0.994  0.995  0.996
    eigenvectors:
  0.938  0.000  0.062  0.000  0.000
  0.000  0.331  0.000  0.000  0.669
  0.000  0.669  0.000  0.000  0.331
  0.006  0.000  0.104  0.890  0.000
  0.055  0.000  0.835  0.110  0.000
    occupations:
  0.991 -0.000 -0.000  0.000 -0.001
 -0.000  0.995 -0.001  0.000  0.000
 -0.000 -0.001  0.994  0.000  0.000
  0.000  0.000  0.000  0.995  0.000
 -0.001  0.000  0.000  0.000  0.994
   spin  2
    eigenvalues: 
  0.215  0.223  0.258  0.324  0.358
    eigenvectors:
  0.000  0.000  0.863  0.000  0.137
  0.330  0.670  0.000  0.000  0.000
  0.670  0.330  0.000  0.000  0.000
  0.000  0.000  0.015  0.888  0.098
  0.000  0.000  0.123  0.112  0.765
    occupations:
  0.272 -0.000 -0.000 -0.011  0.033
 -0.000  0.220 -0.003  0.000  0.000
 -0.000 -0.003  0.218  0.000  0.000
 -0.011  0.000  0.000  0.326 -0.007
  0.033  0.000  0.000 -0.007  0.342
atomic mag. moment =     3.592038
atom    2   Tr[ns(na)] (up, down, total) =   4.96994  1.37626  6.34620
   spin  1
    eigenvalues: 
  0.991  0.994  0.994  0.995  0.996
    eigenvectors:
  0.936  0.000  0.064  0.000  0.000
  0.000  0.348  0.000  0.000  0.652
  0.000  0.652  0.000  0.000  0.348
  0.007  0.000  0.093  0.899  0.000
  0.057  0.000  0.843  0.100  0.000
    occupations:
  0.992 -0.000 -0.000  0.000 -0.001
 -0.000  0.995 -0.001  0.000  0.000
 -0.000 -0.001  0.994  0.000  0.000
  0.000  0.000  0.000  0.995  0.000
 -0.001  0.000  0.000  0.000  0.994
   spin  2
    eigenvalues: 
  0.215  0.223  0.258  0.323  0.358
    eigenvectors:
  0.000  0.000  0.859  0.000  0.141
  0.333  0.667  0.000  0.000  0.000
  0.667  0.333  0.000  0.000  0.000
  0.000  0.000  0.017  0.887  0.096
  0.000  0.000  0.124  0.113  0.763
    occupations:
  0.272 -0.000 -0.000 -0.012  0.033
 -0.000  0.220 -0.004  0.000  0.000
 -0.000 -0.004  0.217  0.000  0.000
 -0.012  0.000  0.000  0.325 -0.006
  0.033  0.000  0.000 -0.006  0.342
atomic mag. moment =     3.593687
atom    3   Tr[ns(na)] (up, down, total) =   4.96997  1.37732  6.34729
   spin  1
    eigenvalues: 
  0.991  0.994  0.994  0.995  0.996
    eigenvectors:
  0.934  0.000  0.066  0.000  0.000
  0.000  0.338  0.000  0.000  0.662
  0.000  0.662  0.000  0.000  0.338
  0.009  0.000  0.105  0.886  0.000
  0.057  0.000  0.829  0.114  0.000
    occupations:
  0.992 -0.000 -0.000  0.000 -0.001
 -0.000  0.995 -0.001  0.000  0.000
 -0.000 -0.001  0.994  0.000  0.000
  0.000  0.000  0.000  0.995  0.000
 -0.001  0.000  0.000  0.000  0.994
   spin  2
    eigenvalues: 
  0.216  0.222  0.258  0.324  0.358
    eigenvectors:
  0.000  0.000  0.860  0.000  0.140
  0.340  0.660  0.000  0.000  0.000
  0.660  0.340  0.000  0.000  0.000
  0.000  0.000  0.017  0.879  0.104
  0.000  0.000  0.124  0.121  0.755
    occupations:
  0.272 -0.000 -0.000 -0.012  0.033
 -0.000  0.220 -0.003  0.000  0.000
 -0.000 -0.003  0.218  0.000  0.000
 -0.012  0.000  0.000  0.326 -0.007
  0.033  0.000  0.000 -0.007  0.341
atomic mag. moment =     3.592651
atom    4   Tr[ns(na)] (up, down, total) =   4.97016  1.37423  6.34439
   spin  1
    eigenvalues: 
  0.992  0.994  0.994  0.995  0.996
    eigenvectors:
  0.923  0.000  0.077  0.000  0.000
  0.000  0.321  0.000  0.000  0.679
  0.000  0.679  0.000  0.000  0.321
  0.008  0.000  0.107  0.885  0.000
  0.069  0.000  0.816  0.115  0.000
    occupations:
  0.992 -0.000 -0.000  0.000 -0.001
 -0.000  0.995 -0.001  0.000  0.000
 -0.000 -0.001  0.994  0.000  0.000
  0.000  0.000  0.000  0.995  0.000
 -0.001  0.000  0.000  0.000  0.994
   spin  2
    eigenvalues: 
  0.214  0.223  0.257  0.323  0.357
    eigenvectors:
  0.000  0.000  0.862  0.000  0.138
  0.344  0.656  0.000  0.000  0.000
  0.656  0.344  0.000  0.000  0.000
  0.000  0.000  0.015  0.893  0.092
  0.000  0.000  0.123  0.107  0.769
    occupations:
  0.271 -0.000 -0.000 -0.011  0.033
 -0.000  0.220 -0.004  0.000  0.000
 -0.000 -0.004  0.217  0.000  0.000
 -0.011  0.000  0.000  0.325 -0.006
  0.033  0.000  0.000 -0.006  0.341
atomic mag. moment =     3.595932
atom    5   Tr[ns(na)] (up, down, total) =   4.96996  2.28224  7.25221
   spin  1
    eigenvalues: 
  0.993  0.993  0.994  0.995  0.995
    eigenvectors:
  0.934  0.010  0.001  0.053  0.001
  0.001  0.000  0.329  0.013  0.657
  0.001  0.000  0.669  0.007  0.323
  0.031  0.865  0.000  0.101  0.002
  0.033  0.124  0.000  0.825  0.017
    occupations:
  0.993  0.000  0.000  0.000 -0.000
  0.000  0.995 -0.000 -0.000  0.000
  0.000 -0.000  0.994  0.000  0.000
  0.000 -0.000  0.000  0.993 -0.000
 -0.000  0.000  0.000 -0.000  0.995
   spin  2
    eigenvalues: 
  0.380  0.382  0.493  0.505  0.522
    eigenvectors:
  0.260  0.001  0.738  0.000  0.000
  0.001  0.665  0.000  0.000  0.333
  0.001  0.333  0.000  0.000  0.666
  0.082  0.000  0.022  0.896  0.000
  0.655  0.001  0.239  0.104  0.000
    occupations:
  0.463 -0.000 -0.000 -0.017  0.047
 -0.000  0.429  0.066  0.000 -0.000
 -0.000  0.066  0.475 -0.000  0.000
 -0.017  0.000 -0.000  0.495  0.030
  0.047 -0.000  0.000  0.030  0.420
atomic mag. moment =     2.687720
atom    6   Tr[ns(na)] (up, down, total) =   4.96996  2.28224  7.25221
   spin  1
    eigenvalues: 
  0.993  0.993  0.994  0.995  0.995
    eigenvectors:
  0.934  0.010  0.001  0.053  0.001
  0.001  0.000  0.329  0.013  0.657
  0.001  0.000  0.669  0.007  0.323
  0.031  0.865  0.000  0.101  0.002
  0.033  0.124  0.000  0.825  0.017
    occupations:
  0.993 -0.000 -0.000  0.000 -0.000
 -0.000  0.995 -0.000  0.000 -0.000
 -0.000 -0.000  0.994 -0.000 -0.000
  0.000  0.000 -0.000  0.993 -0.000
 -0.000 -0.000 -0.000 -0.000  0.995
   spin  2
    eigenvalues: 
  0.380  0.382  0.493  0.505  0.522
    eigenvectors:
  0.260  0.001  0.738  0.000  0.000
  0.001  0.665  0.000  0.000  0.333
  0.001  0.333  0.000  0.000  0.666
  0.082  0.000  0.022  0.896  0.000
  0.655  0.001  0.239  0.104  0.000
    occupations:
  0.463  0.000  0.000 -0.017  0.047
  0.000  0.429  0.066 -0.000  0.000
  0.000  0.066  0.475  0.000 -0.000
 -0.017 -0.000  0.000  0.495  0.030
  0.047  0.000 -0.000  0.030  0.420
atomic mag. moment =     2.687720
atom    7   Tr[ns(na)] (up, down, total) =   4.96988  2.28155  7.25143
   spin  1
    eigenvalues: 
  0.993  0.993  0.994  0.995  0.995
    eigenvectors:
  0.938  0.003  0.000  0.042  0.016
  0.000  0.000  0.336  0.174  0.490
  0.000  0.000  0.664  0.090  0.247
  0.001  0.896  0.000  0.075  0.028
  0.061  0.101  0.000  0.620  0.219
    occupations:
  0.993  0.000  0.000  0.000 -0.000
  0.000  0.995 -0.000  0.000 -0.000
  0.000 -0.000  0.994 -0.000  0.000
  0.000  0.000 -0.000  0.993 -0.000
 -0.000 -0.000  0.000 -0.000  0.995
   spin  2
    eigenvalues: 
  0.380  0.382  0.492  0.505  0.522
    eigenvectors:
  0.257  0.000  0.743  0.000  0.000
  0.001  0.666  0.000  0.000  0.334
  0.000  0.333  0.000  0.000  0.666
  0.083  0.000  0.031  0.887  0.000
  0.659  0.001  0.227  0.113  0.000
    occupations:
  0.463  0.000  0.000 -0.016  0.046
  0.000  0.429  0.066 -0.000  0.000
  0.000  0.066  0.475  0.000  0.000
 -0.016 -0.000  0.000  0.495  0.030
  0.046  0.000  0.000  0.030  0.419
atomic mag. moment =     2.688336
atom    8   Tr[ns(na)] (up, down, total) =   4.96988  2.28155  7.25143
   spin  1
    eigenvalues: 
  0.993  0.993  0.994  0.995  0.995
    eigenvectors:
  0.938  0.003  0.000  0.042  0.016
  0.000  0.000  0.336  0.174  0.490
  0.000  0.000  0.664  0.090  0.247
  0.001  0.896  0.000  0.075  0.028
  0.061  0.101  0.000  0.620  0.219
    occupations:
  0.993 -0.000 -0.000  0.000 -0.000
 -0.000  0.995 -0.000 -0.000  0.000
 -0.000 -0.000  0.994  0.000 -0.000
  0.000 -0.000  0.000  0.993 -0.000
 -0.000  0.000 -0.000 -0.000  0.995
   spin  2
    eigenvalues: 
  0.380  0.382  0.492  0.505  0.522
    eigenvectors:
  0.257  0.000  0.743  0.000  0.000
  0.001  0.666  0.000  0.000  0.334
  0.000  0.333  0.000  0.000  0.666
  0.083  0.000  0.031  0.887  0.000
  0.659  0.001  0.227  0.113  0.000
    occupations:
  0.463 -0.000 -0.000 -0.016  0.046
 -0.000  0.429  0.066  0.000 -0.000
 -0.000  0.066  0.475 -0.000 -0.000
 -0.016  0.000 -0.000  0.495  0.030
  0.046 -0.000 -0.000  0.030  0.419
atomic mag. moment =     2.688336
atom    9   Tr[ns(na)] (up, down, total) =   4.97106  2.28747  7.25853
   spin  1
    eigenvalues: 
  0.993  0.994  0.994  0.995  0.995
    eigenvectors:
  0.723  0.000  0.000  0.000  0.277
  0.000  0.000  0.326  0.674  0.000
  0.000  0.000  0.674  0.326  0.000
  0.033  0.888  0.000  0.000  0.079
  0.244  0.112  0.000  0.000  0.644
    occupations:
  0.994 -0.000 -0.000  0.000 -0.001
 -0.000  0.995 -0.000  0.000  0.000
 -0.000 -0.000  0.994  0.000  0.000
  0.000  0.000  0.000  0.994 -0.000
 -0.001  0.000  0.000 -0.000  0.995
   spin  2
    eigenvalues: 
  0.381  0.384  0.502  0.503  0.517
    eigenvectors:
  0.000  0.240  0.000  0.000  0.760
  0.669  0.000  0.331  0.000  0.000
  0.331  0.000  0.669  0.000  0.000
  0.000  0.085  0.000  0.887  0.029
  0.000  0.676  0.000  0.113  0.211
    occupations:
  0.485 -0.000 -0.000 -0.019  0.054
 -0.000  0.421  0.057  0.000  0.000
 -0.000  0.057  0.462  0.000  0.000
 -0.019  0.000  0.000  0.493  0.027
  0.054  0.000  0.000  0.027  0.426
atomic mag. moment =     2.683597
atom   10   Tr[ns(na)] (up, down, total) =   4.97109  2.29211  7.26320
   spin  1
    eigenvalues: 
  0.993  0.994  0.994  0.995  0.995
    eigenvectors:
  0.717  0.000  0.000  0.000  0.283
  0.000  0.000  0.334  0.666  0.000
  0.000  0.000  0.666  0.334  0.000
  0.035  0.886  0.000  0.000  0.079
  0.248  0.114  0.000  0.000  0.638
    occupations:
  0.994 -0.000 -0.000  0.000 -0.001
 -0.000  0.995 -0.000  0.000  0.000
 -0.000 -0.000  0.994  0.000  0.000
  0.000  0.000  0.000  0.994 -0.000
 -0.001  0.000  0.000 -0.000  0.995
   spin  2
    eigenvalues: 
  0.381  0.384  0.503  0.504  0.519
    eigenvectors:
  0.000  0.242  0.000  0.000  0.758
  0.668  0.000  0.332  0.000  0.000
  0.332  0.000  0.668  0.000  0.000
  0.000  0.084  0.000  0.886  0.030
  0.000  0.674  0.000  0.114  0.212
    occupations:
  0.486 -0.000 -0.000 -0.019  0.054
 -0.000  0.422  0.057  0.000  0.000
 -0.000  0.057  0.463  0.000  0.000
 -0.019  0.000  0.000  0.495  0.027
  0.054  0.000  0.000  0.027  0.427
atomic mag. moment =     2.678974
atom   11   Tr[ns(na)] (up, down, total) =   4.97105  2.29060  7.26165
   spin  1
    eigenvalues: 
  0.993  0.994  0.994  0.995  0.995
    eigenvectors:
  0.720  0.000  0.000  0.000  0.280
  0.000  0.000  0.343  0.657  0.000
  0.000  0.000  0.657  0.343  0.000
  0.031  0.888  0.000  0.000  0.081
  0.249  0.112  0.000  0.000  0.639
    occupations:
  0.994 -0.000 -0.000  0.000 -0.001
 -0.000  0.994 -0.000  0.000  0.000
 -0.000 -0.000  0.994  0.000  0.000
  0.000  0.000  0.000  0.994 -0.000
 -0.001  0.000  0.000 -0.000  0.995
   spin  2
    eigenvalues: 
  0.381  0.384  0.503  0.504  0.518
    eigenvectors:
  0.000  0.243  0.000  0.000  0.757
  0.665  0.000  0.335  0.000  0.000
  0.335  0.000  0.665  0.000  0.000
  0.000  0.085  0.000  0.892  0.023
  0.000  0.672  0.000  0.108  0.220
    occupations:
  0.486 -0.000 -0.000 -0.019  0.054
 -0.000  0.422  0.058  0.000  0.000
 -0.000  0.058  0.462  0.000  0.000
 -0.019  0.000  0.000  0.494  0.027
  0.054  0.000  0.000  0.027  0.427
atomic mag. moment =     2.680446
atom   12   Tr[ns(na)] (up, down, total) =   4.97105  2.28819  7.25924
   spin  1
    eigenvalues: 
  0.993  0.994  0.994  0.995  0.995
    eigenvectors:
  0.711  0.000  0.000  0.000  0.289
  0.000  0.000  0.348  0.652  0.000
  0.000  0.000  0.652  0.348  0.000
  0.035  0.886  0.000  0.000  0.079
  0.254  0.114  0.000  0.000  0.633
    occupations:
  0.994 -0.000 -0.000  0.000 -0.001
 -0.000  0.994 -0.000  0.000  0.000
 -0.000 -0.000  0.994  0.000  0.000
  0.000  0.000  0.000  0.994 -0.000
 -0.001  0.000  0.000 -0.000  0.995
   spin  2
    eigenvalues: 
  0.381  0.384  0.502  0.503  0.518
    eigenvectors:
  0.000  0.240  0.000  0.000  0.760
  0.669  0.000  0.331  0.000  0.000
  0.331  0.000  0.669  0.000  0.000
  0.000  0.085  0.000  0.888  0.027
  0.000  0.675  0.000  0.112  0.213
    occupations:
  0.486 -0.000 -0.000 -0.019  0.054
 -0.000  0.421  0.057  0.000  0.000
 -0.000  0.057  0.462  0.000  0.000
 -0.019  0.000  0.000  0.494  0.027
  0.054  0.000  0.000  0.027  0.426
atomic mag. moment =     2.682855
atom   13   Tr[ns(na)] (up, down, total) =   4.96991  2.31342  7.28333
   spin  1
    eigenvalues: 
  0.993  0.993  0.994  0.995  0.995
    eigenvectors:
  0.913  0.018  0.001  0.002  0.067
  0.000  0.000  0.330  0.657  0.013
  0.001  0.000  0.669  0.325  0.005
  0.002  0.895  0.000  0.002  0.101
  0.084  0.087  0.000  0.014  0.814
    occupations:
  0.993  0.000  0.000  0.000 -0.000
  0.000  0.995 -0.000  0.000 -0.000
  0.000 -0.000  0.994 -0.000  0.000
  0.000  0.000 -0.000  0.993 -0.001
 -0.000 -0.000  0.000 -0.001  0.995
   spin  2
    eigenvalues: 
  0.382  0.387  0.500  0.508  0.537
    eigenvectors:
  0.252  0.000  0.747  0.001  0.000
  0.000  0.668  0.000  0.000  0.332
  0.000  0.332  0.000  0.000  0.668
  0.083  0.000  0.017  0.900  0.000
  0.665  0.000  0.237  0.098  0.000
    occupations:
  0.470 -0.000  0.000 -0.017  0.048
 -0.000  0.437  0.070 -0.000 -0.000
  0.000  0.070  0.487 -0.000  0.000
 -0.017 -0.000 -0.000  0.497  0.030
  0.048 -0.000  0.000  0.030  0.422
atomic mag. moment =     2.656493
atom   14   Tr[ns(na)] (up, down, total) =   4.96991  2.31342  7.28333
   spin  1
    eigenvalues: 
  0.993  0.993  0.994  0.995  0.995
    eigenvectors:
  0.913  0.018  0.001  0.002  0.067
  0.000  0.000  0.330  0.657  0.013
  0.001  0.000  0.669  0.325  0.005
  0.002  0.895  0.000  0.002  0.101
  0.084  0.087  0.000  0.014  0.814
    occupations:
  0.993 -0.000 -0.000  0.000 -0.000
 -0.000  0.995 -0.000 -0.000  0.000
 -0.000 -0.000  0.994  0.000 -0.000
  0.000 -0.000  0.000  0.993 -0.001
 -0.000  0.000 -0.000 -0.001  0.995
   spin  2
    eigenvalues: 
  0.382  0.387  0.500  0.508  0.537
    eigenvectors:
  0.252  0.000  0.747  0.001  0.000
  0.000  0.668  0.000  0.000  0.332
  0.000  0.332  0.000  0.000  0.668
  0.083  0.000  0.017  0.900  0.000
  0.665  0.000  0.237  0.098  0.000
    occupations:
  0.470  0.000 -0.000 -0.017  0.048
  0.000  0.437  0.070  0.000  0.000
 -0.000  0.070  0.487  0.000 -0.000
 -0.017  0.000  0.000  0.497  0.030
  0.048  0.000 -0.000  0.030  0.422
atomic mag. moment =     2.656493
atom   15   Tr[ns(na)] (up, down, total) =   4.96993  2.31289  7.28281
   spin  1
    eigenvalues: 
  0.993  0.993  0.994  0.995  0.995
    eigenvectors:
  0.921  0.017  0.000  0.000  0.063
  0.000  0.000  0.327  0.673  0.000
  0.000  0.000  0.673  0.327  0.000
  0.043  0.851  0.000  0.000  0.105
  0.036  0.132  0.000  0.000  0.832
    occupations:
  0.993  0.000 -0.000  0.000 -0.000
  0.000  0.995 -0.000  0.000  0.000
 -0.000 -0.000  0.994 -0.000 -0.000
  0.000  0.000 -0.000  0.993 -0.001
 -0.000  0.000 -0.000 -0.001  0.995
   spin  2
    eigenvalues: 
  0.382  0.387  0.500  0.508  0.537
    eigenvectors:
  0.252  0.000  0.747  0.000  0.000
  0.000  0.665  0.000  0.000  0.335
  0.000  0.335  0.000  0.000  0.665
  0.083  0.000  0.028  0.889  0.000
  0.664  0.000  0.225  0.111  0.000
    occupations:
  0.470 -0.000  0.000 -0.017  0.048
 -0.000  0.437  0.071  0.000 -0.000
  0.000  0.071  0.487 -0.000 -0.000
 -0.017  0.000 -0.000  0.497  0.030
  0.048 -0.000 -0.000  0.030  0.422
atomic mag. moment =     2.657041
atom   16   Tr[ns(na)] (up, down, total) =   4.96993  2.31289  7.28281
   spin  1
    eigenvalues: 
  0.993  0.993  0.994  0.995  0.995
    eigenvectors:
  0.921  0.017  0.000  0.000  0.063
  0.000  0.000  0.327  0.673  0.000
  0.000  0.000  0.673  0.327  0.000
  0.043  0.851  0.000  0.000  0.105
  0.036  0.132  0.000  0.000  0.832
    occupations:
  0.993 -0.000  0.000  0.000 -0.000
 -0.000  0.995 -0.000 -0.000 -0.000
  0.000 -0.000  0.994  0.000  0.000
  0.000 -0.000  0.000  0.993 -0.001
 -0.000 -0.000  0.000 -0.001  0.995
   spin  2
    eigenvalues: 
  0.382  0.387  0.500  0.508  0.537
    eigenvectors:
  0.252  0.000  0.747  0.000  0.000
  0.000  0.665  0.000  0.000  0.335
  0.000  0.335  0.000  0.000  0.665
  0.083  0.000  0.028  0.889  0.000
  0.664  0.000  0.225  0.111  0.000
    occupations:
  0.470  0.000 -0.000 -0.017  0.048
  0.000  0.437  0.071 -0.000  0.000
 -0.000  0.071  0.487  0.000  0.000
 -0.017 -0.000  0.000  0.497  0.030
  0.048  0.000  0.000  0.030  0.422
atomic mag. moment =     2.657041
atom   17   Tr[ns(na)] (up, down, total) =   4.97006  1.38792  6.35798
   spin  1
    eigenvalues: 
  0.992  0.994  0.994  0.995  0.996
    eigenvectors:
  0.927  0.000  0.073  0.000  0.000
  0.000  0.340  0.000  0.000  0.660
  0.000  0.660  0.000  0.000  0.340
  0.009  0.000  0.101  0.891  0.000
  0.064  0.000  0.826  0.109  0.000
    occupations:
  0.992 -0.000 -0.000  0.000 -0.001
 -0.000  0.995 -0.001  0.000  0.000
 -0.000 -0.001  0.994  0.000  0.000
  0.000  0.000  0.000  0.995  0.000
 -0.001  0.000  0.000  0.000  0.994
   spin  2
    eigenvalues: 
  0.219  0.223  0.259  0.327  0.360
    eigenvectors:
  0.000  0.000  0.851  0.000  0.149
  0.300  0.700  0.000  0.000  0.000
  0.700  0.300  0.000  0.000  0.000
  0.000  0.000  0.017  0.895  0.088
  0.000  0.000  0.132  0.105  0.763
    occupations:
  0.274 -0.000 -0.000 -0.012  0.034
 -0.000  0.222 -0.002  0.000  0.000
 -0.000 -0.002  0.220  0.000  0.000
 -0.012  0.000  0.000  0.329 -0.005
  0.034  0.000  0.000 -0.005  0.343
atomic mag. moment =     3.582134
atom   18   Tr[ns(na)] (up, down, total) =   4.96983  1.38842  6.35825
   spin  1
    eigenvalues: 
  0.991  0.994  0.994  0.995  0.996
    eigenvectors:
  0.930  0.000  0.070  0.000  0.000
  0.000  0.320  0.000  0.000  0.680
  0.000  0.680  0.000  0.000  0.320
  0.008  0.000  0.110  0.882  0.000
  0.063  0.000  0.819  0.118  0.000
    occupations:
  0.991 -0.000 -0.000  0.000 -0.001
 -0.000  0.995 -0.001  0.000  0.000
 -0.000 -0.001  0.994  0.000  0.000
  0.000  0.000  0.000  0.995  0.000
 -0.001  0.000  0.000  0.000  0.994
   spin  2
    eigenvalues: 
  0.219  0.222  0.259  0.328  0.361
    eigenvectors:
  0.000  0.000  0.854  0.000  0.146
  0.324  0.676  0.000  0.000  0.000
  0.676  0.324  0.000  0.000  0.000
  0.000  0.000  0.016  0.889  0.095
  0.000  0.000  0.130  0.111  0.759
    occupations:
  0.274 -0.000 -0.000 -0.012  0.034
 -0.000  0.221 -0.002  0.000  0.000
 -0.000 -0.002  0.220  0.000  0.000
 -0.012  0.000  0.000  0.330 -0.006
  0.034  0.000  0.000 -0.006  0.344
atomic mag. moment =     3.581411
atom   19   Tr[ns(na)] (up, down, total) =   4.96983  1.38648  6.35631
   spin  1
    eigenvalues: 
  0.991  0.994  0.994  0.995  0.996
    eigenvectors:
  0.928  0.000  0.072  0.000  0.000
  0.000  0.332  0.000  0.000  0.668
  0.000  0.668  0.000  0.000  0.332
  0.006  0.000  0.104  0.890  0.000
  0.066  0.000  0.824  0.110  0.000
    occupations:
  0.992 -0.000 -0.000  0.000 -0.001
 -0.000  0.995 -0.001  0.000  0.000
 -0.000 -0.001  0.994  0.000  0.000
  0.000  0.000  0.000  0.995  0.000
 -0.001  0.000  0.000  0.000  0.994
   spin  2
    eigenvalues: 
  0.219  0.223  0.259  0.326  0.360
    eigenvectors:
  0.000  0.000  0.855  0.000  0.145
  0.317  0.683  0.000  0.000  0.000
  0.683  0.317  0.000  0.000  0.000
  0.000  0.000  0.015  0.890  0.095
  0.000  0.000  0.131  0.110  0.759
    occupations:
  0.273 -0.000 -0.000 -0.012  0.034
 -0.000  0.221 -0.002  0.000  0.000
 -0.000 -0.002  0.220  0.000  0.000
 -0.012  0.000  0.000  0.329 -0.006
  0.034  0.000  0.000 -0.006  0.343
atomic mag. moment =     3.583351
atom   20   Tr[ns(na)] (up, down, total) =   4.96952  1.38832  6.35784
   spin  1
    eigenvalues: 
  0.991  0.994  0.994  0.995  0.996
    eigenvectors:
  0.938  0.000  0.062  0.000  0.000
  0.000  0.336  0.000  0.000  0.664
  0.000  0.664  0.000  0.000  0.336
  0.008  0.000  0.106  0.887  0.000
  0.054  0.000  0.833  0.113  0.000
    occupations:
  0.991 -0.000 -0.000  0.000 -0.001
 -0.000  0.995 -0.001  0.000  0.000
 -0.000 -0.001  0.994  0.000  0.000
  0.000  0.000  0.000  0.995  0.000
 -0.001  0.000  0.000  0.000  0.994
   spin  2
    eigenvalues: 
  0.219  0.223  0.259  0.327  0.360
    eigenvectors:
  0.000  0.000  0.851  0.000  0.149
  0.308  0.692  0.000  0.000  0.000
  0.692  0.308  0.000  0.000  0.000
  0.000  0.000  0.017  0.897  0.086
  0.000  0.000  0.132  0.103  0.765
    occupations:
  0.274 -0.000 -0.000 -0.012  0.034
 -0.000  0.222 -0.002  0.000  0.000
 -0.000 -0.002  0.220  0.000  0.000
 -0.012  0.000  0.000  0.329 -0.005
  0.034  0.000  0.000 -0.005  0.344
atomic mag. moment =     3.581193
N of occupied +U levels = 137.9979214
 --- exit write_ns ---

     negative rho (up, down):  0.000E+00 0.334E-03
 --- in v_hubbard ---
Hubbard energy    0.0000
 -------

     total cpu time spent up to now is      227.7 secs

     total energy              =   -6580.20041415 Ry
     Harris-Foulkes estimate   =   -6569.47794487 Ry
     estimated scf accuracy    <      33.22768215 Ry

     total magnetization       =    64.00 Bohr mag/cell
     absolute magnetization    =    68.07 Bohr mag/cell

     iteration #  2     ecut=    95.00 Ry     beta=0.50
     Davidson diagonalization with overlap
     ethr =  1.00E-02,  avg # of iterations =  1.0
 --- enter write_ns ---
 LDA+U parameters:
U( 1)     =  0.00000000
alpha( 1) =  0.00000000
atom    1   Tr[ns(na)] (up, down, total) =   4.97328  1.88817  6.86145
   spin  1
    eigenvalues: 
  0.992  0.994  0.995  0.995  0.996
    eigenvectors:
  0.848  0.152  0.000  0.000  0.000
  0.000  0.000  0.000  0.330  0.670
  0.000  0.000  0.000  0.670  0.330
  0.015  0.099  0.886  0.000  0.000
  0.137  0.749  0.114  0.000  0.000
    occupations:
  0.993 -0.000 -0.000  0.000 -0.001
 -0.000  0.996 -0.001  0.000  0.000
 -0.000 -0.001  0.996  0.000  0.000
  0.000  0.000  0.000  0.995  0.000
 -0.001  0.000  0.000  0.000  0.994
   spin  2
    eigenvalues: 
  0.296  0.321  0.338  0.446  0.485
    eigenvectors:
  0.000  0.000  0.714  0.286  0.000
  0.667  0.333  0.000  0.000  0.000
  0.333  0.667  0.000  0.000  0.000
  0.000  0.000  0.031  0.079  0.889
  0.000  0.000  0.254  0.635  0.111
    occupations:
  0.369 -0.000 -0.000 -0.016  0.046
 -0.000  0.305  0.012  0.000  0.000
 -0.000  0.012  0.313  0.000  0.000
 -0.016  0.000  0.000  0.478  0.022
  0.046  0.000  0.000  0.022  0.423
atomic mag. moment =     3.085111
atom    2   Tr[ns(na)] (up, down, total) =   4.97347  1.88687  6.86034
   spin  1
    eigenvalues: 
  0.993  0.994  0.995  0.995  0.996
    eigenvectors:
  0.830  0.170  0.000  0.000  0.000
  0.000  0.000  0.000  0.348  0.652
  0.000  0.000  0.000  0.652  0.348
  0.019  0.071  0.909  0.000  0.000
  0.150  0.759  0.091  0.000  0.000
    occupations:
  0.993 -0.000 -0.000  0.000 -0.001
 -0.000  0.996 -0.001  0.000  0.000
 -0.000 -0.001  0.996  0.000  0.000
  0.000  0.000  0.000  0.995  0.000
 -0.001  0.000  0.000  0.000  0.994
   spin  2
    eigenvalues: 
  0.296  0.321  0.338  0.446  0.485
    eigenvectors:
  0.000  0.000  0.713  0.287  0.000
  0.670  0.330  0.000  0.000  0.000
  0.330  0.670  0.000  0.000  0.000
  0.000  0.000  0.032  0.078  0.890
  0.000  0.000  0.255  0.635  0.110
    occupations:
  0.369 -0.000 -0.000 -0.016  0.046
 -0.000  0.304  0.011  0.000  0.000
 -0.000  0.011  0.313  0.000  0.000
 -0.016  0.000  0.000  0.478  0.022
  0.046  0.000  0.000  0.022  0.423
atomic mag. moment =     3.086608
atom    3   Tr[ns(na)] (up, down, total) =   4.97346  1.88615  6.85961
   spin  1
    eigenvalues: 
  0.993  0.994  0.995  0.995  0.996
    eigenvectors:
  0.824  0.176  0.000  0.000  0.000
  0.000  0.000  0.000  0.333  0.667
  0.000  0.000  0.000  0.667  0.333
  0.024  0.081  0.895  0.000  0.000
  0.152  0.743  0.104  0.000  0.000
    occupations:
  0.993 -0.000 -0.000  0.000 -0.001
 -0.000  0.996 -0.001  0.000  0.000
 -0.000 -0.001  0.996  0.000  0.000
  0.000  0.000  0.000  0.995  0.000
 -0.001  0.000  0.000  0.000  0.994
   spin  2
    eigenvalues: 
  0.296  0.321  0.338  0.446  0.485
    eigenvectors:
  0.000  0.000  0.713  0.287  0.000
  0.667  0.333  0.000  0.000  0.000
  0.333  0.667  0.000  0.000  0.000
  0.000  0.000  0.032  0.075  0.893
  0.000  0.000  0.255  0.638  0.107
    occupations:
  0.369 -0.000 -0.000 -0.017  0.046
 -0.000  0.304  0.012  0.000  0.000
 -0.000  0.012  0.313  0.000  0.000
 -0.017  0.000  0.000  0.477  0.022
  0.046  0.000  0.000  0.022  0.423
atomic mag. moment =     3.087307
atom    4   Tr[ns(na)] (up, down, total) =   4.97369  1.88705  6.86074
   spin  1
    eigenvalues: 
  0.993  0.994  0.995  0.995  0.996
    eigenvectors:
  0.795  0.204  0.001  0.000  0.000
  0.000  0.000  0.000  0.327  0.673
  0.000  0.000  0.000  0.673  0.327
  0.020  0.111  0.869  0.000  0.000
  0.185  0.685  0.130  0.000  0.000
    occupations:
  0.993 -0.000 -0.000  0.000 -0.001
 -0.000  0.996 -0.001  0.000  0.000
 -0.000 -0.001  0.996  0.000  0.000
  0.000  0.000  0.000  0.995  0.000
 -0.001  0.000  0.000  0.000  0.994
   spin  2
    eigenvalues: 
  0.296  0.321  0.338  0.446  0.486
    eigenvectors:
  0.000  0.000  0.714  0.286  0.000
  0.668  0.332  0.000  0.000  0.000
  0.332  0.668  0.000  0.000  0.000
  0.000  0.000  0.032  0.081  0.887
  0.000  0.000  0.255  0.632  0.113
    occupations:
  0.369 -0.000 -0.000 -0.016  0.046
 -0.000  0.305  0.011  0.000  0.000
 -0.000  0.011  0.313  0.000  0.000
 -0.016  0.000  0.000  0.478  0.022
  0.046  0.000  0.000  0.022  0.423
atomic mag. moment =     3.086640
atom    5   Tr[ns(na)] (up, down, total) =   4.95267  2.05280  7.00547
   spin  1
    eigenvalues: 
  0.989  0.990  0.990  0.991  0.992
    eigenvectors:
  0.994  0.000  0.000  0.005  0.000
  0.000  0.000  0.333  0.000  0.667
  0.000  0.000  0.667  0.000  0.333
  0.002  0.889  0.000  0.109  0.000
  0.004  0.111  0.000  0.886  0.000
    occupations:
  0.989  0.000  0.000  0.000 -0.000
  0.000  0.991 -0.001 -0.000  0.000
  0.000 -0.001  0.991  0.000  0.000
  0.000 -0.000  0.000  0.990 -0.000
 -0.000  0.000  0.000 -0.000  0.991
   spin  2
    eigenvalues: 
  0.355  0.356  0.436  0.437  0.469
    eigenvectors:
  0.309  0.015  0.039  0.637  0.000
  0.030  0.637  0.000  0.000  0.333
  0.015  0.318  0.000  0.000  0.667
  0.072  0.003  0.756  0.169  0.000
  0.574  0.027  0.205  0.194  0.000
    occupations:
  0.410 -0.000 -0.000 -0.013  0.036
 -0.000  0.393  0.053  0.000 -0.000
 -0.000  0.053  0.431 -0.000 -0.000
 -0.013  0.000 -0.000  0.430  0.017
  0.036 -0.000 -0.000  0.017  0.388
atomic mag. moment =     2.899870
atom    6   Tr[ns(na)] (up, down, total) =   4.95267  2.05280  7.00547
   spin  1
    eigenvalues: 
  0.989  0.990  0.990  0.991  0.992
    eigenvectors:
  0.994  0.000  0.000  0.005  0.000
  0.000  0.000  0.333  0.000  0.667
  0.000  0.000  0.667  0.000  0.333
  0.002  0.889  0.000  0.109  0.000
  0.004  0.111  0.000  0.886  0.000
    occupations:
  0.989 -0.000 -0.000  0.000 -0.000
 -0.000  0.991 -0.001  0.000 -0.000
 -0.000 -0.001  0.991 -0.000 -0.000
  0.000  0.000 -0.000  0.990 -0.000
 -0.000 -0.000 -0.000 -0.000  0.991
   spin  2
    eigenvalues: 
  0.355  0.356  0.436  0.437  0.469
    eigenvectors:
  0.309  0.015  0.039  0.637  0.000
  0.030  0.637  0.000  0.000  0.333
  0.015  0.318  0.000  0.000  0.667
  0.072  0.003  0.756  0.169  0.000
  0.574  0.027  0.205  0.194  0.000
    occupations:
  0.410  0.000  0.000 -0.013  0.036
  0.000  0.393  0.053 -0.000  0.000
  0.000  0.053  0.431  0.000  0.000
 -0.013 -0.000  0.000  0.430  0.017
  0.036  0.000  0.000  0.017  0.388
atomic mag. moment =     2.899870
atom    7   Tr[ns(na)] (up, down, total) =   4.95263  2.05398  7.00661
   spin  1
    eigenvalues: 
  0.989  0.990  0.990  0.991  0.992
    eigenvectors:
  0.993  0.000  0.000  0.006  0.000
  0.000  0.001  0.338  0.000  0.661
  0.000  0.001  0.660  0.000  0.339
  0.000  0.886  0.001  0.112  0.000
  0.006  0.112  0.000  0.881  0.000
    occupations:
  0.989  0.000  0.000  0.000 -0.000
  0.000  0.991 -0.001  0.000 -0.000
  0.000 -0.001  0.991 -0.000  0.000
  0.000  0.000 -0.000  0.990 -0.000
 -0.000 -0.000  0.000 -0.000  0.991
   spin  2
    eigenvalues: 
  0.356  0.356  0.437  0.437  0.469
    eigenvectors:
  0.322  0.001  0.036  0.642  0.000
  0.001  0.666  0.000  0.000  0.333
  0.001  0.333  0.000  0.000  0.667
  0.075  0.000  0.924  0.001  0.000
  0.601  0.001  0.040  0.357  0.000
    occupations:
  0.411 -0.000  0.000 -0.013  0.036
 -0.000  0.394  0.053 -0.000  0.000
  0.000  0.053  0.431  0.000  0.000
 -0.013 -0.000  0.000  0.431  0.017
  0.036  0.000  0.000  0.017  0.388
atomic mag. moment =     2.898649
atom    8   Tr[ns(na)] (up, down, total) =   4.95263  2.05398  7.00661
   spin  1
    eigenvalues: 
  0.989  0.990  0.990  0.991  0.992
    eigenvectors:
  0.993  0.000  0.000  0.006  0.000
  0.000  0.001  0.338  0.000  0.661
  0.000  0.001  0.660  0.000  0.339
  0.000  0.886  0.001  0.112  0.000
  0.006  0.112  0.000  0.881  0.000
    occupations:
  0.989 -0.000 -0.000  0.000 -0.000
 -0.000  0.991 -0.001 -0.000  0.000
 -0.000 -0.001  0.991  0.000 -0.000
  0.000 -0.000  0.000  0.990 -0.000
 -0.000  0.000 -0.000 -0.000  0.991
   spin  2
    eigenvalues: 
  0.356  0.356  0.437  0.437  0.469
    eigenvectors:
  0.322  0.001  0.036  0.642  0.000
  0.001  0.666  0.000  0.000  0.333
  0.001  0.333  0.000  0.000  0.667
  0.075  0.000  0.924  0.001  0.000
  0.601  0.001  0.040  0.357  0.000
    occupations:
  0.411  0.000 -0.000 -0.013  0.036
  0.000  0.394  0.053  0.000 -0.000
 -0.000  0.053  0.431 -0.000 -0.000
 -0.013  0.000 -0.000  0.431  0.017
  0.036 -0.000 -0.000  0.017  0.388
atomic mag. moment =     2.898649
atom    9   Tr[ns(na)] (up, down, total) =   4.95586  2.06833  7.02419
   spin  1
    eigenvalues: 
  0.989  0.991  0.991  0.992  0.992
    eigenvectors:
  0.000  0.451  0.549  0.000  0.000
  0.331  0.000  0.000  0.669  0.000
  0.669  0.000  0.000  0.331  0.000
  0.000  0.060  0.050  0.000  0.891
  0.000  0.489  0.402  0.000  0.109
    occupations:
  0.991 -0.000 -0.000  0.000 -0.000
 -0.000  0.991 -0.001  0.000  0.000
 -0.000 -0.001  0.990  0.000  0.000
  0.000  0.000  0.000  0.992  0.000
 -0.000  0.000  0.000  0.000  0.991
   spin  2
    eigenvalues: 
  0.367  0.372  0.438  0.441  0.451
    eigenvectors:
  0.000  0.241  0.000  0.000  0.759
  0.668  0.000  0.332  0.000  0.000
  0.332  0.000  0.668  0.000  0.000
  0.000  0.084  0.000  0.884  0.032
  0.000  0.675  0.000  0.116  0.209
    occupations:
  0.432 -0.000 -0.000 -0.011  0.032
 -0.000  0.391  0.033  0.000  0.000
 -0.000  0.033  0.414  0.000  0.000
 -0.011  0.000  0.000  0.436  0.016
  0.032  0.000  0.000  0.016  0.396
atomic mag. moment =     2.887521
atom   10   Tr[ns(na)] (up, down, total) =   4.95567  2.06421  7.01988
   spin  1
    eigenvalues: 
  0.989  0.991  0.991  0.992  0.992
    eigenvectors:
  0.000  0.392  0.608  0.000  0.000
  0.338  0.000  0.000  0.662  0.000
  0.662  0.000  0.000  0.338  0.000
  0.000  0.070  0.046  0.000  0.884
  0.000  0.538  0.347  0.000  0.116
    occupations:
  0.991 -0.000 -0.000  0.000 -0.000
 -0.000  0.991 -0.001  0.000  0.000
 -0.000 -0.001  0.990  0.000  0.000
  0.000  0.000  0.000  0.992  0.000
 -0.000  0.000  0.000  0.000  0.991
   spin  2
    eigenvalues: 
  0.366  0.371  0.437  0.441  0.450
    eigenvectors:
  0.000  0.241  0.000  0.000  0.759
  0.667  0.000  0.333  0.000  0.000
  0.333  0.000  0.667  0.000  0.000
  0.000  0.084  0.000  0.886  0.030
  0.000  0.675  0.000  0.114  0.211
    occupations:
  0.431 -0.000 -0.000 -0.011  0.032
 -0.000  0.390  0.033  0.000  0.000
 -0.000  0.033  0.413  0.000  0.000
 -0.011  0.000  0.000  0.435  0.016
  0.032  0.000  0.000  0.016  0.395
atomic mag. moment =     2.891456
atom   11   Tr[ns(na)] (up, down, total) =   4.95567  2.06548  7.02116
   spin  1
    eigenvalues: 
  0.989  0.991  0.991  0.992  0.992
    eigenvectors:
  0.000  0.424  0.576  0.000  0.000
  0.335  0.000  0.000  0.665  0.000
  0.665  0.000  0.000  0.335  0.000
  0.000  0.067  0.043  0.000  0.890
  0.000  0.509  0.381  0.000  0.110
    occupations:
  0.991 -0.000 -0.000  0.000 -0.000
 -0.000  0.991 -0.001  0.000  0.000
 -0.000 -0.001  0.990  0.000  0.000
  0.000  0.000  0.000  0.992  0.000
 -0.000  0.000  0.000  0.000  0.991
   spin  2
    eigenvalues: 
  0.366  0.371  0.437  0.441  0.450
    eigenvectors:
  0.000  0.241  0.000  0.000  0.759
  0.666  0.000  0.334  0.000  0.000
  0.334  0.000  0.666  0.000  0.000
  0.000  0.085  0.000  0.891  0.024
  0.000  0.674  0.000  0.108  0.217
    occupations:
  0.431 -0.000 -0.000 -0.011  0.032
 -0.000  0.390  0.034  0.000  0.000
 -0.000  0.034  0.414  0.000  0.000
 -0.011  0.000  0.000  0.435  0.016
  0.032  0.000  0.000  0.016  0.396
atomic mag. moment =     2.890190
atom   12   Tr[ns(na)] (up, down, total) =   4.95584  2.06766  7.02350
   spin  1
    eigenvalues: 
  0.989  0.991  0.991  0.992  0.992
    eigenvectors:
  0.000  0.407  0.593  0.000  0.000
  0.335  0.000  0.000  0.665  0.000
  0.665  0.000  0.000  0.335  0.000
  0.000  0.066  0.047  0.000  0.887
  0.000  0.526  0.360  0.000  0.113
    occupations:
  0.991 -0.000 -0.000  0.000 -0.000
 -0.000  0.991 -0.001  0.000  0.000
 -0.000 -0.001  0.990  0.000  0.000
  0.000  0.000  0.000  0.992  0.000
 -0.000  0.000  0.000  0.000  0.991
   spin  2
    eigenvalues: 
  0.367  0.371  0.438  0.441  0.450
    eigenvectors:
  0.000  0.241  0.000  0.000  0.759
  0.668  0.000  0.332  0.000  0.000
  0.332  0.000  0.668  0.000  0.000
  0.000  0.085  0.000  0.889  0.026
  0.000  0.674  0.000  0.111  0.215
    occupations:
  0.431 -0.000 -0.000 -0.011  0.032
 -0.000  0.390  0.033  0.000  0.000
 -0.000  0.033  0.414  0.000  0.000
 -0.011  0.000  0.000  0.435  0.016
  0.032  0.000  0.000  0.016  0.396
atomic mag. moment =     2.888183
atom   13   Tr[ns(na)] (up, down, total) =   4.95173  2.07225  7.02398
   spin  1
    eigenvalues: 
  0.989  0.990  0.990  0.991  0.992
    eigenvectors:
  0.992  0.000  0.000  0.008  0.000
  0.000  0.010  0.329  0.000  0.662
  0.000  0.022  0.640  0.000  0.338
  0.000  0.859  0.028  0.113  0.000
  0.008  0.110  0.003  0.879  0.000
    occupations:
  0.989 -0.000  0.000  0.000 -0.000
 -0.000  0.991 -0.001  0.000 -0.000
  0.000 -0.001  0.991 -0.000 -0.000
  0.000  0.000 -0.000  0.990 -0.000
 -0.000 -0.000 -0.000 -0.000  0.991
   spin  2
    eigenvalues: 
  0.356  0.358  0.438  0.440  0.480
    eigenvectors:
  0.314  0.000  0.003  0.683  0.000
  0.000  0.667  0.000  0.000  0.333
  0.000  0.333  0.000  0.000  0.667
  0.076  0.000  0.862  0.062  0.000
  0.610  0.000  0.135  0.255  0.000
    occupations:
  0.414 -0.000 -0.000 -0.013  0.036
 -0.000  0.399  0.058 -0.000 -0.000
 -0.000  0.058  0.440 -0.000  0.000
 -0.013 -0.000 -0.000  0.432  0.017
  0.036 -0.000  0.000  0.017  0.389
atomic mag. moment =     2.879473
atom   14   Tr[ns(na)] (up, down, total) =   4.95173  2.07225  7.02398
   spin  1
    eigenvalues: 
  0.989  0.990  0.990  0.991  0.992
    eigenvectors:
  0.992  0.000  0.000  0.008  0.000
  0.000  0.010  0.329  0.000  0.662
  0.000  0.022  0.640  0.000  0.338
  0.000  0.859  0.028  0.113  0.000
  0.008  0.110  0.003  0.879  0.000
    occupations:
  0.989  0.000 -0.000  0.000 -0.000
  0.000  0.991 -0.001 -0.000  0.000
 -0.000 -0.001  0.991  0.000  0.000
  0.000 -0.000  0.000  0.990 -0.000
 -0.000  0.000  0.000 -0.000  0.991
   spin  2
    eigenvalues: 
  0.356  0.358  0.438  0.440  0.480
    eigenvectors:
  0.314  0.000  0.003  0.683  0.000
  0.000  0.667  0.000  0.000  0.333
  0.000  0.333  0.000  0.000  0.667
  0.076  0.000  0.862  0.062  0.000
  0.610  0.000  0.135  0.255  0.000
    occupations:
  0.414  0.000  0.000 -0.013  0.036
  0.000  0.399  0.058  0.000  0.000
  0.000  0.058  0.440  0.000 -0.000
 -0.013  0.000  0.000  0.432  0.017
  0.036  0.000 -0.000  0.017  0.389
atomic mag. moment =     2.879473
atom   15   Tr[ns(na)] (up, down, total) =   4.95176  2.07246  7.02422
   spin  1
    eigenvalues: 
  0.989  0.990  0.990  0.991  0.992
    eigenvectors:
  0.993  0.000  0.000  0.007  0.000
  0.000  0.033  0.298  0.000  0.669
  0.000  0.065  0.604  0.000  0.331
  0.001  0.800  0.087  0.112  0.000
  0.006  0.102  0.011  0.881  0.000
    occupations:
  0.989  0.000 -0.000  0.000 -0.000
  0.000  0.991 -0.001  0.000  0.000
 -0.000 -0.001  0.991  0.000 -0.000
  0.000  0.000  0.000  0.990 -0.000
 -0.000  0.000 -0.000 -0.000  0.991
   spin  2
    eigenvalues: 
  0.357  0.358  0.438  0.440  0.480
    eigenvectors:
  0.314  0.000  0.000  0.686  0.000
  0.000  0.666  0.000  0.000  0.334
  0.000  0.334  0.000  0.000  0.666
  0.076  0.000  0.890  0.034  0.000
  0.610  0.000  0.110  0.280  0.000
    occupations:
  0.413 -0.000  0.000 -0.013  0.036
 -0.000  0.399  0.058  0.000 -0.000
  0.000  0.058  0.440 -0.000 -0.000
 -0.013  0.000 -0.000  0.432  0.017
  0.036 -0.000 -0.000  0.017  0.389
atomic mag. moment =     2.879301
atom   16   Tr[ns(na)] (up, down, total) =   4.95176  2.07246  7.02422
   spin  1
    eigenvalues: 
  0.989  0.990  0.990  0.991  0.992
    eigenvectors:
  0.993  0.000  0.000  0.007  0.000
  0.000  0.033  0.298  0.000  0.669
  0.000  0.065  0.604  0.000  0.331
  0.001  0.800  0.087  0.112  0.000
  0.006  0.102  0.011  0.881  0.000
    occupations:
  0.989 -0.000  0.000  0.000 -0.000
 -0.000  0.991 -0.001 -0.000 -0.000
  0.000 -0.001  0.991 -0.000  0.000
  0.000 -0.000 -0.000  0.990 -0.000
 -0.000 -0.000  0.000 -0.000  0.991
   spin  2
    eigenvalues: 
  0.357  0.358  0.438  0.440  0.480
    eigenvectors:
  0.314  0.000  0.000  0.686  0.000
  0.000  0.666  0.000  0.000  0.334
  0.000  0.334  0.000  0.000  0.666
  0.076  0.000  0.890  0.034  0.000
  0.610  0.000  0.110  0.280  0.000
    occupations:
  0.413  0.000 -0.000 -0.013  0.036
  0.000  0.399  0.058 -0.000  0.000
 -0.000  0.058  0.440  0.000  0.000
 -0.013 -0.000  0.000  0.432  0.017
  0.036  0.000  0.000  0.017  0.389
atomic mag. moment =     2.879301
atom   17   Tr[ns(na)] (up, down, total) =   4.97343  1.88816  6.86158
   spin  1
    eigenvalues: 
  0.993  0.994  0.995  0.995  0.996
    eigenvectors:
  0.796  0.204  0.000  0.000  0.000
  0.000  0.000  0.000  0.339  0.661
  0.000  0.000  0.000  0.661  0.339
  0.024  0.088  0.888  0.000  0.000
  0.180  0.708  0.112  0.000  0.000
    occupations:
  0.993 -0.000 -0.000  0.000 -0.001
 -0.000  0.996 -0.001  0.000  0.000
 -0.000 -0.001  0.995  0.000  0.000
  0.000  0.000  0.000  0.995  0.000
 -0.001  0.000  0.000  0.000  0.994
   spin  2
    eigenvalues: 
  0.296  0.323  0.338  0.446  0.485
    eigenvectors:
  0.000  0.000  0.709  0.291  0.000
  0.662  0.338  0.000  0.000  0.000
  0.338  0.662  0.000  0.000  0.000
  0.000  0.000  0.033  0.080  0.888
  0.000  0.000  0.259  0.629  0.112
    occupations:
  0.370 -0.000 -0.000 -0.016  0.046
 -0.000  0.305  0.013  0.000  0.000
 -0.000  0.013  0.314  0.000  0.000
 -0.016  0.000  0.000  0.477  0.022
  0.046  0.000  0.000  0.022  0.423
atomic mag. moment =     3.085273
atom   18   Tr[ns(na)] (up, down, total) =   4.97326  1.88939  6.86266
   spin  1
    eigenvalues: 
  0.993  0.994  0.995  0.995  0.996
    eigenvectors:
  0.816  0.184  0.000  0.000  0.000
  0.000  0.000  0.000  0.319  0.681
  0.000  0.000  0.000  0.681  0.319
  0.019  0.105  0.875  0.000  0.000
  0.165  0.711  0.124  0.000  0.000
    occupations:
  0.993 -0.000 -0.000  0.000 -0.001
 -0.000  0.996 -0.001  0.000  0.000
 -0.000 -0.001  0.995  0.000  0.000
  0.000  0.000  0.000  0.995  0.000
 -0.001  0.000  0.000  0.000  0.994
   spin  2
    eigenvalues: 
  0.296  0.323  0.339  0.447  0.485
    eigenvectors:
  0.000  0.000  0.710  0.290  0.000
  0.665  0.335  0.000  0.000  0.000
  0.335  0.665  0.000  0.000  0.000
  0.000  0.000  0.032  0.079  0.889
  0.000  0.000  0.258  0.631  0.111
    occupations:
  0.370 -0.000 -0.000 -0.016  0.046
 -0.000  0.305  0.013  0.000  0.000
 -0.000  0.013  0.314  0.000  0.000
 -0.016  0.000  0.000  0.477  0.022
  0.046  0.000  0.000  0.022  0.423
atomic mag. moment =     3.083868
atom   19   Tr[ns(na)] (up, down, total) =   4.97331  1.89179  6.86510
   spin  1
    eigenvalues: 
  0.993  0.994  0.995  0.995  0.996
    eigenvectors:
  0.815  0.185  0.001  0.000  0.000
  0.000  0.000  0.000  0.327  0.673
  0.000  0.000  0.000  0.673  0.327
  0.017  0.104  0.879  0.000  0.000
  0.169  0.711  0.120  0.000  0.000
    occupations:
  0.993 -0.000 -0.000  0.000 -0.001
 -0.000  0.996 -0.001  0.000  0.000
 -0.000 -0.001  0.995  0.000  0.000
  0.000  0.000  0.000  0.995  0.000
 -0.001  0.000  0.000  0.000  0.994
   spin  2
    eigenvalues: 
  0.296  0.324  0.339  0.447  0.485
    eigenvectors:
  0.000  0.000  0.710  0.290  0.000
  0.665  0.335  0.000  0.000  0.000
  0.335  0.665  0.000  0.000  0.000
  0.000  0.000  0.032  0.080  0.889
  0.000  0.000  0.259  0.630  0.111
    occupations:
  0.370 -0.000 -0.000 -0.016  0.047
 -0.000  0.306  0.013  0.000  0.000
 -0.000  0.013  0.315  0.000  0.000
 -0.016  0.000  0.000  0.478  0.022
  0.047  0.000  0.000  0.022  0.424
atomic mag. moment =     3.081526
atom   20   Tr[ns(na)] (up, down, total) =   4.97309  1.89353  6.86661
   spin  1
    eigenvalues: 
  0.992  0.994  0.995  0.995  0.996
    eigenvectors:
  0.841  0.159  0.000  0.000  0.000
  0.000  0.000  0.000  0.339  0.661
  0.000  0.000  0.000  0.661  0.339
  0.020  0.094  0.886  0.000  0.000
  0.139  0.747  0.114  0.000  0.000
    occupations:
  0.993 -0.000 -0.000  0.000 -0.001
 -0.000  0.996 -0.001  0.000  0.000
 -0.000 -0.001  0.995  0.000  0.000
  0.000  0.000  0.000  0.995  0.000
 -0.001  0.000  0.000  0.000  0.994
   spin  2
    eigenvalues: 
  0.296  0.324  0.339  0.448  0.486
    eigenvectors:
  0.000  0.000  0.707  0.293  0.000
  0.661  0.339  0.000  0.000  0.000
  0.339  0.661  0.000  0.000  0.000
  0.000  0.000  0.033  0.083  0.884
  0.000  0.000  0.261  0.623  0.116
    occupations:
  0.371 -0.000 -0.000 -0.016  0.047
 -0.000  0.306  0.013  0.000  0.000
 -0.000  0.013  0.315  0.000  0.000
 -0.016  0.000  0.000  0.478  0.022
  0.047  0.000  0.000  0.022  0.424
atomic mag. moment =     3.079560
N of occupied +U levels = 139.1073802
 --- exit write_ns ---

     negative rho (up, down):  0.000E+00 0.124E-02
 --- in v_hubbard ---
Hubbard energy    0.0000
 -------

     total cpu time spent up to now is      284.2 secs

     total energy              =   -6583.89614825 Ry
     Harris-Foulkes estimate   =   -6580.56181478 Ry
     estimated scf accuracy    <       8.24145760 Ry

     total magnetization       =    63.11 Bohr mag/cell
     absolute magnetization    =    66.05 Bohr mag/cell

     iteration #  3     ecut=    95.00 Ry     beta=0.50
     Davidson diagonalization with overlap
     ethr =  2.58E-03,  avg # of iterations =  3.1
 --- enter write_ns ---
 LDA+U parameters:
U( 1)     =  0.00000000
alpha( 1) =  0.00000000
atom    1   Tr[ns(na)] (up, down, total) =   4.93358  2.17805  7.11163
   spin  1
    eigenvalues: 
  0.981  0.985  0.989  0.990  0.990
    eigenvectors:
  0.069  0.000  0.930  0.000  0.000
  0.000  0.000  0.000  0.425  0.575
  0.000  0.000  0.000  0.575  0.425
  0.118  0.875  0.008  0.000  0.000
  0.813  0.125  0.062  0.000  0.000
    occupations:
  0.988 -0.000 -0.000  0.001 -0.002
 -0.000  0.990  0.000  0.000  0.000
 -0.000  0.000  0.990  0.000  0.000
  0.001  0.000  0.000  0.984  0.001
 -0.002  0.000  0.000  0.001  0.982
   spin  2
    eigenvalues: 
  0.349  0.363  0.424  0.483  0.558
    eigenvectors:
  0.000  0.639  0.000  0.361  0.000
  0.667  0.000  0.333  0.000  0.000
  0.333  0.000  0.667  0.000  0.000
  0.000  0.040  0.000  0.071  0.889
  0.000  0.322  0.000  0.567  0.111
    occupations:
  0.407 -0.000 -0.000 -0.019  0.054
 -0.000  0.374  0.036  0.000  0.000
 -0.000  0.036  0.399  0.000  0.000
 -0.019  0.000  0.000  0.545  0.037
  0.054  0.000  0.000  0.037  0.453
atomic mag. moment =     2.755526
atom    2   Tr[ns(na)] (up, down, total) =   4.93371  2.17736  7.11107
   spin  1
    eigenvalues: 
  0.981  0.985  0.989  0.990  0.990
    eigenvectors:
  0.069  0.000  0.931  0.000  0.000
  0.000  0.000  0.000  0.791  0.209
  0.000  0.000  0.000  0.209  0.791
  0.116  0.876  0.008  0.000  0.000
  0.815  0.124  0.061  0.000  0.000
    occupations:
  0.988 -0.000 -0.000  0.001 -0.002
 -0.000  0.990  0.000  0.000  0.000
 -0.000  0.000  0.990  0.000  0.000
  0.001  0.000  0.000  0.984  0.001
 -0.002  0.000  0.000  0.001  0.982
   spin  2
    eigenvalues: 
  0.348  0.363  0.424  0.483  0.558
    eigenvectors:
  0.000  0.639  0.000  0.361  0.000
  0.670  0.000  0.330  0.000  0.000
  0.330  0.000  0.670  0.000  0.000
  0.000  0.040  0.000  0.071  0.889
  0.000  0.321  0.000  0.568  0.111
    occupations:
  0.407 -0.000 -0.000 -0.019  0.054
 -0.000  0.373  0.035  0.000  0.000
 -0.000  0.035  0.399  0.000  0.000
 -0.019  0.000  0.000  0.545  0.037
  0.054  0.000  0.000  0.037  0.453
atomic mag. moment =     2.756343
atom    3   Tr[ns(na)] (up, down, total) =   4.93380  2.17916  7.11296
   spin  1
    eigenvalues: 
  0.981  0.985  0.989  0.990  0.990
    eigenvectors:
  0.070  0.000  0.930  0.000  0.000
  0.000  0.000  0.000  0.364  0.636
  0.000  0.000  0.000  0.636  0.364
  0.114  0.878  0.008  0.000  0.000
  0.816  0.122  0.062  0.000  0.000
    occupations:
  0.988 -0.000 -0.000  0.001 -0.002
 -0.000  0.990  0.000  0.000  0.000
 -0.000  0.000  0.990  0.000  0.000
  0.001  0.000  0.000  0.984  0.001
 -0.002  0.000  0.000  0.001  0.982
   spin  2
    eigenvalues: 
  0.349  0.364  0.425  0.484  0.559
    eigenvectors:
  0.000  0.639  0.000  0.361  0.000
  0.665  0.000  0.335  0.000  0.000
[...]
     0.7546   0.7546   0.7524   0.7524   0.5721   0.5721   0.4854   0.4853
     0.3842   0.3842   0.3822   0.3822   0.3479   0.3478   0.2145   0.2145
     0.0280   0.0280   0.0134   0.0134   0.0095   0.0095   0.0073   0.0073
     0.0069   0.0069   0.0067   0.0067   0.0015   0.0015   0.0006   0.0006
     0.0003   0.0003   0.0001   0.0001   0.0000   0.0000   0.0000   0.0000
     0.0000   0.0000   0.0000   0.0000   0.0000   0.0000   0.0000   0.0000
     0.0000   0.0000   0.0000   0.0000   0.0000   0.0000   0.0000   0.0000
     0.0000   0.0000   0.0000   0.0000   0.0000   0.0000   0.0000   0.0000

     the Fermi energy is     6.6244 ev

!    total energy              =   -6584.86222251 Ry
     Harris-Foulkes estimate   =   -6584.86222250 Ry
     estimated scf accuracy    <          3.1E-09 Ry

     total all-electron energy =    -50910.792933 Ry

     The total energy is the sum of the following terms:

     one-electron contribution =  -29993.01142081 Ry
     hartree contribution      =   15071.58535762 Ry
     xc contribution           =    -696.28523944 Ry
     ewald contribution        =   10555.73022643 Ry
     Hubbard energy            =       0.00000000 Ry
     one-center paw contrib.   =   -1523.01269712 Ry
     smearing contrib. (-TS)   =       0.13155081 Ry

     total magnetization       =    46.87 Bohr mag/cell
     absolute magnetization    =    48.92 Bohr mag/cell

     convergence has been achieved in  28 iterations

     Forces acting on atoms (Ry/au):


     negative rho (up, down):  0.593E-04 0.667E-03
     atom    1 type  1   force =     0.00000000    0.00000000    0.00168844
     atom    2 type  1   force =     0.00000000    0.00000000    0.00169570
     atom    3 type  1   force =     0.00000000    0.00000000    0.00169558
     atom    4 type  1   force =     0.00000000    0.00000000    0.00169149
     atom    5 type  1   force =    -0.00000050    0.00000077    0.00295634
     atom    6 type  1   force =     0.00000050   -0.00000077    0.00295634
     atom    7 type  1   force =    -0.00000041   -0.00000163    0.00296032
     atom    8 type  1   force =     0.00000041    0.00000163    0.00296032
     atom    9 type  1   force =     0.00000000    0.00000000   -0.00460585
     atom   10 type  1   force =     0.00000000    0.00000000   -0.00461190
     atom   11 type  1   force =     0.00000000    0.00000000   -0.00461069
     atom   12 type  1   force =     0.00000000    0.00000000   -0.00460536
     atom   13 type  1   force =    -0.00000052    0.00000046   -0.00000319
     atom   14 type  1   force =     0.00000052   -0.00000046   -0.00000319
     atom   15 type  1   force =    -0.00000045   -0.00000093   -0.00000775
     atom   16 type  1   force =     0.00000045    0.00000093   -0.00000775
     atom   17 type  1   force =     0.00000000    0.00000000   -0.00003959
     atom   18 type  1   force =     0.00000000    0.00000000   -0.00003513
     atom   19 type  1   force =     0.00000000    0.00000000   -0.00003592
     atom   20 type  1   force =     0.00000000    0.00000000   -0.00003819
     The non-local contrib.  to forces
     atom    1 type  1   force =     0.00000000    0.00000000   -0.19573308
     atom    2 type  1   force =     0.00000000    0.00000000   -0.19572680
     atom    3 type  1   force =     0.00000000    0.00000000   -0.19572661
     atom    4 type  1   force =     0.00000000    0.00000000   -0.19573043
     atom    5 type  1   force =    -0.00000076    0.00000017   -0.02857588
     atom    6 type  1   force =     0.00000076   -0.00000017   -0.02857588
     atom    7 type  1   force =    -0.00000069   -0.00000087   -0.02857415
     atom    8 type  1   force =     0.00000069    0.00000087   -0.02857415
     atom    9 type  1   force =     0.00000000    0.00000000    0.00477992
     atom   10 type  1   force =     0.00000000    0.00000000    0.00477141
     atom   11 type  1   force =     0.00000000    0.00000000    0.00477261
     atom   12 type  1   force =     0.00000000    0.00000000    0.00478085
     atom   13 type  1   force =    -0.00000050    0.00000024    0.02703391
     atom   14 type  1   force =     0.00000050   -0.00000024    0.02703391
     atom   15 type  1   force =    -0.00000041   -0.00000102    0.02703603
     atom   16 type  1   force =     0.00000041    0.00000102    0.02703603
     atom   17 type  1   force =     0.00000000    0.00000000    0.19256657
     atom   18 type  1   force =     0.00000000    0.00000000    0.19256866
     atom   19 type  1   force =     0.00000000    0.00000000    0.19256850
     atom   20 type  1   force =     0.00000000    0.00000000    0.19256977
     The ionic contribution  to forces
     atom    1 type  1   force =    -0.00002788   -0.00003763 -323.62164936
     atom    2 type  1   force =     0.00002897    0.00004011 -323.62162565
     atom    3 type  1   force =     0.00004228   -0.00006594 -323.62162563
     atom    4 type  1   force =    -0.00004118    0.00006843 -323.62160269
     atom    5 type  1   force =     0.00003386    0.00007538 -163.30419053
     atom    6 type  1   force =    -0.00005764   -0.00005354 -163.30419042
     atom    7 type  1   force =     0.00006164   -0.00005235 -163.30418020
     atom    8 type  1   force =    -0.00004224    0.00002056 -163.30418032
     atom    9 type  1   force =    -0.00002819   -0.00003831   -0.72532749
     atom   10 type  1   force =     0.00003046    0.00004342   -0.72523361
     atom   11 type  1   force =     0.00004470   -0.00006504   -0.72522190
     atom   12 type  1   force =    -0.00004243    0.00007016   -0.72537781
     atom   13 type  1   force =     0.00000079    0.00001312  163.27206670
     atom   14 type  1   force =    -0.00002514    0.00000927  163.27206632
     atom   15 type  1   force =     0.00002427   -0.00000376  163.27260712
     atom   16 type  1   force =    -0.00000451   -0.00002899  163.27260750
     atom   17 type  1   force =    -0.00002789   -0.00003766  324.37857987
     atom   18 type  1   force =     0.00002902    0.00004020  324.37892094
     atom   19 type  1   force =     0.00004234   -0.00006594  324.37892314
     atom   20 type  1   force =    -0.00004122    0.00006849  324.37863404
     The local contribution  to forces
     atom    1 type  1   force =    -0.00000000   -0.00000000  323.82803404
     atom    2 type  1   force =    -0.00010550    0.00030377  323.82802230
     atom    3 type  1   force =     0.00032188    0.00000178  323.82802134
     atom    4 type  1   force =    -0.00042739    0.00030199  323.82798846
     atom    5 type  1   force =    -0.00004924   -0.00006199  163.33745407
     atom    6 type  1   force =     0.00004924    0.00006199  163.33745407
     atom    7 type  1   force =    -0.00005581    0.00003025  163.33745265
     atom    8 type  1   force =     0.00005581   -0.00003025  163.33745265
     atom    9 type  1   force =    -0.00000000   -0.00000000    0.71611655
     atom   10 type  1   force =    -0.00010643    0.00030074    0.71600634
     atom   11 type  1   force =     0.00031933   -0.00000011    0.71599557
     atom   12 type  1   force =    -0.00042576    0.00030084    0.71616680
     atom   13 type  1   force =    -0.00001519    0.00000037 -163.30106017
     atom   14 type  1   force =     0.00001519   -0.00000037 -163.30106017
     atom   15 type  1   force =    -0.00001713   -0.00001698 -163.30160565
     atom   16 type  1   force =     0.00001713    0.00001698 -163.30160565
     atom   17 type  1   force =     0.00000000   -0.00000000 -324.58011160
     atom   18 type  1   force =    -0.00010553    0.00030370 -324.58044610
     atom   19 type  1   force =     0.00032182    0.00000173 -324.58044727
     atom   20 type  1   force =    -0.00042736    0.00030197 -324.58016609
     The core correction contribution to forces
     atom    1 type  1   force =     0.00000000   -0.00000000   -0.00885202
     atom    2 type  1   force =     0.00000389   -0.00001103   -0.00885205
     atom    3 type  1   force =    -0.00001171   -0.00000001   -0.00885207
     atom    4 type  1   force =     0.00001561   -0.00001102   -0.00885204
     atom    5 type  1   force =     0.00000001    0.00000002   -0.00162587
     atom    6 type  1   force =    -0.00000001   -0.00000002   -0.00162587
     atom    7 type  1   force =     0.00000003   -0.00000003   -0.00162575
     atom    8 type  1   force =    -0.00000002    0.00000003   -0.00162575
     atom    9 type  1   force =    -0.00000000   -0.00000000   -0.00020103
     atom   10 type  1   force =     0.00000389   -0.00001101   -0.00020102
     atom   11 type  1   force =    -0.00001168   -0.00000001   -0.00020101
     atom   12 type  1   force =     0.00001557   -0.00001100   -0.00020104
     atom   13 type  1   force =     0.00000001    0.00000000    0.00182148
     atom   14 type  1   force =    -0.00000001   -0.00000000    0.00182149
     atom   15 type  1   force =     0.00000001   -0.00000000    0.00182125
     atom   16 type  1   force =    -0.00000000    0.00000000    0.00182124
     atom   17 type  1   force =     0.00000001    0.00000000    0.00882004
     atom   18 type  1   force =     0.00000389   -0.00001104    0.00882024
     atom   19 type  1   force =    -0.00001171   -0.00000001    0.00882016
     atom   20 type  1   force =     0.00001560   -0.00001102    0.00882006
     The Hubbard contrib.    to forces
     atom    1 type  1   force =     0.00000000    0.00000000   -0.00000000
     atom    2 type  1   force =     0.00000000    0.00000000   -0.00000000
     atom    3 type  1   force =     0.00000000    0.00000000   -0.00000000
     atom    4 type  1   force =     0.00000000    0.00000000   -0.00000000
     atom    5 type  1   force =    -0.00000000   -0.00000000    0.00000000
     atom    6 type  1   force =     0.00000000    0.00000000    0.00000000
     atom    7 type  1   force =    -0.00000000    0.00000000    0.00000000
     atom    8 type  1   force =     0.00000000   -0.00000000    0.00000000
     atom    9 type  1   force =     0.00000000    0.00000000    0.00000000
     atom   10 type  1   force =     0.00000000    0.00000000    0.00000000
     atom   11 type  1   force =     0.00000000    0.00000000    0.00000000
     atom   12 type  1   force =     0.00000000    0.00000000    0.00000000
     atom   13 type  1   force =    -0.00000000   -0.00000000   -0.00000000
     atom   14 type  1   force =     0.00000000    0.00000000   -0.00000000
     atom   15 type  1   force =     0.00000000    0.00000000   -0.00000000
     atom   16 type  1   force =    -0.00000000   -0.00000000   -0.00000000
     atom   17 type  1   force =     0.00000000    0.00000000    0.00000000
     atom   18 type  1   force =     0.00000000    0.00000000    0.00000000
     atom   19 type  1   force =     0.00000000    0.00000000    0.00000000
     atom   20 type  1   force =     0.00000000    0.00000000    0.00000000
     The SCF correction term to forces
     atom    1 type  1   force =     0.00000000    0.00000000    0.00000000
     atom    2 type  1   force =     0.00000000    0.00000000    0.00000000
     atom    3 type  1   force =     0.00000000    0.00000000    0.00000000
     atom    4 type  1   force =     0.00000000    0.00000000    0.00000000
     atom    5 type  1   force =     0.00000000    0.00000000    0.00000000
     atom    6 type  1   force =     0.00000000    0.00000000    0.00000000
     atom    7 type  1   force =     0.00000000    0.00000000    0.00000000
     atom    8 type  1   force =     0.00000000    0.00000000    0.00000000
     atom    9 type  1   force =     0.00000000    0.00000000    0.00000000
     atom   10 type  1   force =     0.00000000    0.00000000    0.00000000
     atom   11 type  1   force =     0.00000000    0.00000000    0.00000000
     atom   12 type  1   force =     0.00000000    0.00000000    0.00000000
     atom   13 type  1   force =     0.00000216   -0.00000204    0.00013412
     atom   14 type  1   force =    -0.00000223    0.00000209    0.00013410
     atom   15 type  1   force =     0.00000273    0.00000444    0.00013235
     atom   16 type  1   force =    -0.00000266   -0.00000448    0.00013237
     atom   17 type  1   force =    -0.00000002   -0.00000013    0.00010457
     atom   18 type  1   force =     0.00000002    0.00000013    0.00010016
     atom   19 type  1   force =     0.00000002   -0.00000016    0.00009858
     atom   20 type  1   force =    -0.00000002    0.00000016    0.00010307

     Total force =     0.000075     Total SCF correction =     0.000335
     SCF correction compared to forces is large: reduce conv_thr to get better values


     entering subroutine stress ...


     negative rho (up, down):  0.593E-04 0.667E-03
          total   stress  (Ry/bohr**3)                   (kbar)     P=  -11.06
  -0.00008394  -0.00003704   0.00000000        -12.35     -5.45      0.00
  -0.00003704  -0.00011013   0.00000000         -5.45    -16.20      0.00
   0.00000000   0.00000000  -0.00003156          0.00      0.00     -4.64

     kinetic stress (kbar)  39751.00      1.67      0.00
                                1.67  39752.17      0.00
                                0.00      0.00  39570.43

     local   stress (kbar)**********    805.76      0.00
                              805.76**********      0.00
                                0.00      0.001334706.50

     nonloc. stress (kbar) -31050.95     10.97      0.00
                               10.97 -31043.19      0.00
                                0.00      0.00 -30885.34

     hartree stress (kbar) 664952.73   -300.63      0.00
                             -300.63 664740.15     -0.00
                                0.00     -0.00-623458.46

     exc-cor stress (kbar)  -1266.89     -0.63      0.00
                               -0.63  -1267.34      0.00
                                0.00      0.00  -1277.42

     corecor stress (kbar)  -8173.87     -0.18     -0.00
                               -0.18  -8174.00     -0.00
                               -0.00     -0.00  -8172.48

     ewald   stress (kbar) 602742.36   -522.40     -0.00
                             -522.40 602372.97     -0.00
                               -0.00     -0.00-710487.86

     hubbard stress (kbar)     -0.00      0.00      0.00
                                0.00     -0.00      0.00
                                0.00      0.00     -0.00

     london  stress (kbar)      0.00      0.00      0.00
                                0.00      0.00      0.00
                                0.00      0.00      0.00

     dft-nl  stress (kbar)      0.00      0.00      0.00
                                0.00      0.00      0.00
                                0.00      0.00      0.00



     BFGS Geometry Optimization

     bfgs converged in   1 scf cycles and   0 bfgs steps
     (criteria: energy < 0.10E-04, force < 0.10E-03)

     End of BFGS Geometry Optimization

     Final energy   =   -6584.8622225084 Ry
Begin final coordinates

ATOMIC_POSITIONS (angstrom)
Fe       0.000000000   0.000000000  -4.005768401    0   0   0
Fe      -0.817674051   2.312731465  -4.005768401    0   0   0
Fe       2.453022152   0.000000000  -4.005768401    0   0   0
Fe      -3.270696203   2.312731465  -4.005768401    0   0   0
Fe       0.817674051   1.156365732  -2.002884200    0   0   0
Fe      -0.817674051  -1.156365732  -2.002884200    0   0   0
Fe       1.635348102  -1.156365732  -2.002884200    0   0   0
Fe      -1.635348102   1.156365732  -2.002884200    0   0   0
Fe       0.000000000   0.000000000   0.000000000    0   0   0
Fe      -0.817674051   2.312731465   0.000000000    0   0   0
Fe       2.453022152   0.000000000   0.000000000    0   0   0
Fe      -3.270696203   2.312731465   0.000000000    0   0   0
Fe       0.817674624   1.156366202   1.980425778
Fe      -0.817674624  -1.156366202   1.980425778
Fe       1.635348516  -1.156366427   1.980435189
Fe      -1.635348516   1.156366427   1.980435189
Fe       0.000000000   0.000000000   3.973347245
Fe      -0.817674051   2.312731465   3.973352017
Fe       2.453022152   0.000000000   3.973352385
Fe      -3.270696203   2.312731465   3.973348614
End final coordinates



     Writing output data file Fe_110_2x2_H2S_top_25ML.save
 
     init_run     :    149.10s CPU    158.23s WALL (       1 calls)
     electrons    :   1763.11s CPU   1857.90s WALL (       1 calls)
     forces       :     58.81s CPU     59.71s WALL (       1 calls)
     stress       :    291.19s CPU    299.26s WALL (       1 calls)

     Called by init_run:
     wfcinit      :     19.51s CPU     27.67s WALL (       1 calls)
     potinit      :      1.45s CPU      1.55s WALL (       1 calls)

     Called by electrons:
     c_bands      :    917.65s CPU    965.35s WALL (      28 calls)
     sum_band     :    433.81s CPU    452.70s WALL (      28 calls)
     v_of_rho     :     17.87s CPU     18.27s WALL (      29 calls)
     v_h          :      0.88s CPU      0.88s WALL (      29 calls)
     v_xc         :     18.18s CPU     18.59s WALL (      31 calls)
     newd         :    252.12s CPU    252.69s WALL (      29 calls)
     mix_rho      :     93.53s CPU     93.74s WALL (      28 calls)

     Called by c_bands:
     init_us_2    :      4.95s CPU      4.98s WALL (     350 calls)
     cegterg      :    798.81s CPU    814.36s WALL (     140 calls)

     Called by sum_band:
     sum_band:bec :      0.28s CPU      0.28s WALL (     140 calls)
     addusdens    :    288.27s CPU    288.78s WALL (      28 calls)

     Called by *egterg:
     h_psi        :    600.15s CPU    601.49s WALL (     551 calls)
     s_psi        :     43.00s CPU     43.04s WALL (     606 calls)
     g_psi        :      1.11s CPU      1.11s WALL (     406 calls)
     cdiaghg      :     56.83s CPU     57.12s WALL (     546 calls)
     cegterg:over :     43.91s CPU     43.99s WALL (     406 calls)
     cegterg:upda :     33.14s CPU     33.30s WALL (     406 calls)
     cegterg:last :     19.63s CPU     19.65s WALL (     140 calls)
     cdiaghg:chol :      2.77s CPU      2.78s WALL (     546 calls)
     cdiaghg:inve :      0.90s CPU      0.96s WALL (     546 calls)
     cdiaghg:para :     11.04s CPU     11.10s WALL (    1092 calls)

     Called by h_psi:
     h_psi:vloc   :    370.43s CPU    371.41s WALL (     551 calls)
     h_psi:vnl    :     76.76s CPU     76.85s WALL (     551 calls)
     add_vuspsi   :     37.03s CPU     37.14s WALL (     551 calls)
     vhpsi        :    150.98s CPU    151.20s WALL (     551 calls)

     General routines
     calbec       :    163.20s CPU    163.54s WALL (    2442 calls)
     fft          :     20.11s CPU     20.35s WALL (     933 calls)
     ffts         :     43.89s CPU     43.90s WALL (   10715 calls)
     fftw         :    378.71s CPU    379.67s WALL (   72014 calls)
     interpolate  :      3.14s CPU      3.16s WALL (     114 calls)
     davcio       :     10.09s CPU     75.30s WALL (    1025 calls)
 
     Parallel routines
     fft_scatter  :    191.80s CPU    192.45s WALL (   83662 calls)
     ALLTOALL     :      9.12s CPU      9.04s WALL (   71902 calls)
     Hubbard U routines
     new_ns       :     15.18s CPU     27.70s WALL (      28 calls)
     vhpsi        :    150.98s CPU    151.20s WALL (     551 calls)
     force_hub    :     15.57s CPU     16.28s WALL (       1 calls)
     stres_hub    :    156.99s CPU    164.85s WALL (       1 calls)
 
     PAW routines
     PAW_pot      :      7.28s CPU      7.31s WALL (      29 calls)
     PAW_ddot     :      6.00s CPU      6.07s WALL (     976 calls)
     PAW_symme    :      0.03s CPU      0.04s WALL (      57 calls)
 
     PWSCF        : 37m54.51s CPU    40m 1.23s WALL

 
   This run was terminated on:   3:56:18   5Aug2015            

=------------------------------------------------------------------------------=
   JOB DONE.
=------------------------------------------------------------------------------=
Application 16683279 resources: utime ~109978s, stime ~3168s, Rss ~535776, inblocks ~4812189400, outblocks ~766654625
