
     Program PHONON v.4.3.2     starts on  3Mar2014 at 15:16:28 

     This program is part of the open-source Quantum ESPRESSO suite
     for quantum simulation of materials; please cite
         "P. Giannozzi et al., J. Phys.:Condens. Matter 21 395502 (2009);
          URL http://www.quantum-espresso.org", 
     in publications or presentations arising from this work. More details at
     http://www.quantum-espresso.org/wiki/index.php/Citing_Quantum-ESPRESSO

     Parallel version (MPI), running on   128 processors
     R & G space division:  proc/pool =  128

     Ultrasoft (Vanderbilt) Pseudopotentials

   Info: using nr1, nr2, nr3 values from input

   Info: using nr1s, nr2s, nr3s values from input
 
     Parallelization info
     --------------------
     sticks:   dense  smooth     PW     G-vecs:    dense   smooth      PW
     Min         107      42     11                13603     3425     463
     Max         108      43     12                13610     3455     472
     Sum       13749    5493   1457              1741527   440509   59861
 

     negative rho (up, down):  0.350E-01 0.000E+00
        1 /   1 q-points for this run, from  1 to  1:
       N       xq(1)         xq(2)         xq(3) 
       1   0.000000000   0.000000000   0.000000000
 

     Calculation of q =    0.0000000   0.0000000   0.0000000

     Restart in Phonon calculation

                                                                                

     bravais-lattice index     =            0
     lattice parameter (alat)  =       1.8897  a.u.
     unit-cell volume          =    9223.6872 (a.u.)^3
     number of atoms/cell      =           88
     number of atomic types    =            3
     kinetic-energy cut-off    =      50.0000  Ry
     charge density cut-off    =     500.0000  Ry
     convergence threshold     =      1.0E-14
     beta                      =       0.7000
     number of iterations used =            4
     Exchange-correlation      = PBESOL ( 1 410 8 0)
     EXX-fraction              =        0.00


     celldm(1)=    1.88973  celldm(2)=    0.00000  celldm(3)=    0.00000
     celldm(4)=    0.00000  celldm(5)=    0.00000  celldm(6)=    0.00000

     crystal axes: (cart. coord. in units of alat)
               a(1) = ( 10.2848  0.0000  0.0000 )  
               a(2) = (  0.0000  9.4041  0.0000 )  
               a(3) = (  0.0000  0.0000 14.1317 )  

     reciprocal axes: (cart. coord. in units 2 pi/alat)
               b(1) = (  0.0972  0.0000  0.0000 )  
               b(2) = (  0.0000  0.1063  0.0000 )  
               b(3) = (  0.0000  0.0000  0.0708 )  


     Atoms inside the unit cell: 

   Cartesian axes

     site n.  atom      mass           positions (alat units)
        1        Th 232.0381   tau( 1) = (    4.74866    2.52168    1.55703  )
        2        Th 232.0381   tau( 2) = (    0.39373    6.88246    8.62287  )
        3        Th 232.0381   tau( 3) = (    5.53613    7.22372    5.50880  )
        4        Th 232.0381   tau( 4) = (    9.89106    2.18041   12.57465  )
        5        Th 232.0381   tau( 5) = (    5.53613    6.88246   12.57465  )
        6        Th 232.0381   tau( 6) = (    9.89106    2.52168    5.50880  )
        7        Th 232.0381   tau( 7) = (    4.74866    2.18041    8.62287  )
        8        Th 232.0381   tau( 8) = (    0.39373    7.22372    1.55703  )
        9        Mo  95.9600   tau( 9) = (    1.04142    1.85765    2.04811  )
       10        Mo  95.9600   tau(10) = (    4.10098    7.54649    9.11396  )
       11        Mo  95.9600   tau(11) = (    9.24337    6.55970    5.01772  )
       12        Mo  95.9600   tau(12) = (    6.18382    2.84444   12.08357  )
       13        Mo  95.9600   tau(13) = (    9.24337    7.54649   12.08357  )
       14        Mo  95.9600   tau(14) = (    6.18382    1.85765    5.01772  )
       15        Mo  95.9600   tau(15) = (    1.04142    2.84444    9.11396  )
       16        Mo  95.9600   tau(16) = (    4.10098    6.55970    2.04811  )
       17        Mo  95.9600   tau(17) = (    7.50409    0.08749    0.88934  )
       18        Mo  95.9600   tau(18) = (    7.92310    9.31665    7.95519  )
       19        Mo  95.9600   tau(19) = (    2.78071    4.78953    6.17649  )
       20        Mo  95.9600   tau(20) = (    2.36169    4.61460   13.24234  )
       21        Mo  95.9600   tau(21) = (    2.78071    9.31665   13.24234  )
       22        Mo  95.9600   tau(22) = (    2.36169    0.08749    6.17649  )
       23        Mo  95.9600   tau(23) = (    7.50409    4.61460    7.95519  )
       24        Mo  95.9600   tau(24) = (    7.92310    4.78953    0.88934  )
       25        O   15.9994   tau(25) = (    5.01507    2.54962    3.89661  )
       26        O   15.9994   tau(26) = (   10.41213    6.85451   10.96246  )
       27        O   15.9994   tau(27) = (    5.26973    7.25167    3.16921  )
       28        O   15.9994   tau(28) = (   -0.12733    2.15246   10.23506  )
       29        O   15.9994   tau(29) = (    5.26973    6.85451   10.23506  )
       30        O   15.9994   tau(30) = (   -0.12733    2.54962    3.16921  )
       31        O   15.9994   tau(31) = (    5.01507    2.15246   10.96246  )
       32        O   15.9994   tau(32) = (   10.41213    7.25167    3.89661  )
       33        O   15.9994   tau(33) = (    1.13058    0.75963    5.07086  )
       34        O   15.9994   tau(34) = (    4.01182    8.64450   12.13671  )
       35        O   15.9994   tau(35) = (    9.15422    5.46168    1.99497  )
       36        O   15.9994   tau(36) = (    6.27298    3.94246    9.06082  )
       37        O   15.9994   tau(37) = (    9.15422    8.64450    9.06082  )
       38        O   15.9994   tau(38) = (    6.27298    0.75963    1.99497  )
       39        O   15.9994   tau(39) = (    1.13058    3.94246   12.13671  )
       40        O   15.9994   tau(40) = (    4.01182    5.46168    5.07086  )
       41        O   15.9994   tau(41) = (    3.52721    0.73741    0.48926  )
       42        O   15.9994   tau(42) = (    1.61519    8.66672    7.55511  )
       43        O   15.9994   tau(43) = (    6.75759    5.43946    6.57656  )
       44        O   15.9994   tau(44) = (    8.66961    3.96467   13.64241  )
       45        O   15.9994   tau(45) = (    6.75759    8.66672   13.64241  )
       46        O   15.9994   tau(46) = (    8.66961    0.73741    6.57656  )
       47        O   15.9994   tau(47) = (    3.52721    3.96467    7.55511  )
       48        O   15.9994   tau(48) = (    1.61519    5.43946    0.48926  )
       49        O   15.9994   tau(49) = (    0.82137    2.59988    0.45430  )
       50        O   15.9994   tau(50) = (    4.32103    6.80425    7.52015  )
       51        O   15.9994   tau(51) = (    9.46342    7.30193    6.61152  )
       52        O   15.9994   tau(52) = (    5.96377    2.10220   13.67737  )
       53        O   15.9994   tau(53) = (    9.46342    6.80425   13.67737  )
       54        O   15.9994   tau(54) = (    5.96377    2.59988    6.61152  )
       55        O   15.9994   tau(55) = (    0.82137    2.10220    7.52015  )
       56        O   15.9994   tau(56) = (    4.32103    7.30193    0.45430  )
       57        O   15.9994   tau(57) = (    3.50252    1.30691    6.75814  )
       58        O   15.9994   tau(58) = (    1.63988    8.09723   13.82398  )
       59        O   15.9994   tau(59) = (    6.78227    6.00895    0.30769  )
       60        O   15.9994   tau(60) = (    8.64492    3.39518    7.37354  )
       61        O   15.9994   tau(61) = (    6.78227    8.09723    7.37354  )
       62        O   15.9994   tau(62) = (    8.64492    1.30691    0.30769  )
       63        O   15.9994   tau(63) = (    3.50252    3.39518   13.82398  )
       64        O   15.9994   tau(64) = (    1.63988    6.00895    6.75814  )
       65        O   15.9994   tau(65) = (    4.31199    4.80808    1.94067  )
       66        O   15.9994   tau(66) = (    0.83040    4.59605    9.00652  )
       67        O   15.9994   tau(67) = (    5.97280    0.10603    5.12516  )
       68        O   15.9994   tau(68) = (    9.45439    9.29810   12.19101  )
       69        O   15.9994   tau(69) = (    5.97280    4.59605   12.19101  )
       70        O   15.9994   tau(70) = (    9.45439    4.80808    5.12516  )
       71        O   15.9994   tau(71) = (    4.31199    9.29810    9.00652  )
       72        O   15.9994   tau(72) = (    0.83040    0.10603    1.94067  )
       73        O   15.9994   tau(73) = (    1.76380    3.63926    5.31863  )
       74        O   15.9994   tau(74) = (    3.37860    5.76488   12.38447  )
       75        O   15.9994   tau(75) = (    8.52100   -1.06279    1.74720  )
       76        O   15.9994   tau(76) = (    6.90620   10.46692    8.81305  )
       77        O   15.9994   tau(77) = (    8.52100    5.76488    8.81305  )
       78        O   15.9994   tau(78) = (    6.90620    3.63926    1.74720  )
       79        O   15.9994   tau(79) = (    1.76380   10.46692   12.38447  )
       80        O   15.9994   tau(80) = (    3.37860   -1.06279    5.31863  )
       81        O   15.9994   tau(81) = (    2.65373    2.29644    2.59925  )
       82        O   15.9994   tau(82) = (    2.48867    7.10769    9.66509  )
       83        O   15.9994   tau(83) = (    7.63107    6.99849    4.46658  )
       84        O   15.9994   tau(84) = (    7.79613    2.40564   11.53243  )
       85        O   15.9994   tau(85) = (    7.63107    7.10769   11.53243  )
       86        O   15.9994   tau(86) = (    7.79613    2.29644    4.46658  )
       87        O   15.9994   tau(87) = (    2.65373    2.40564    9.66509  )
       88        O   15.9994   tau(88) = (    2.48867    6.99849    2.59925  )

     Computing dynamical matrix for 
                    q = (   0.0000000   0.0000000   0.0000000 )
 
      9 Sym.Ops. (with q -> -q+G )


     G cutoff =   45.2281  (  13607 G-vectors)     FFT grid: (144,128,192)
     G cutoff =   18.0912  (   3449 G-vectors)  smooth grid: ( 90, 80,125)

     number of k points=     8  Methfessel-Paxton smearing, width (Ry)=  0.0001

     PseudoPot. # 1 for Th read from file:
     /hpcwork/jara0038/ariadna/ThMo2O8/PHON/U_0/ORTH/NEW_ORTHO/ThMo4O8_vc-relax.save/Th.uspp.pbe.UPF
     MD5 check sum: c61255c1cd298da3ee729aeea206c4ba
     Pseudo is Ultrasoft + core correction, Zval = 12.0
     Generated by new atomic code, or converted to UPF format
     Using radial grid of  783 points,  6 beta functions with: 
                l(1) =   0
                l(2) =   0
                l(3) =   1
                l(4) =   1
                l(5) =   3
                l(6) =   3
     Q(r) pseudized with  8 coefficients,  rinner =    1.400   1.400   1.400
                                                       1.400   1.400   1.400
                                                       1.400

     PseudoPot. # 2 for Mo read from file:
     /hpcwork/jara0038/ariadna/ThMo2O8/PHON/U_0/ORTH/NEW_ORTHO/ThMo4O8_vc-relax.save/Mo.uspp.pbe.UPF
     MD5 check sum: ebbb4cc6f20032dd16a6e5518f6ad3a2
     Pseudo is Ultrasoft + core correction, Zval = 14.0
     Generated by new atomic code, or converted to UPF format
     Using radial grid of  889 points,  6 beta functions with: 
                l(1) =   0
                l(2) =   0
                l(3) =   1
                l(4) =   1
                l(5) =   2
                l(6) =   2
     Q(r) pseudized with  6 coefficients,  rinner =    1.000   1.000   1.000
                                                       1.000   1.000

     PseudoPot. # 3 for ox read from file:
     /hpcwork/jara0038/ariadna/ThMo2O8/PHON/U_0/ORTH/NEW_ORTHO/ThMo4O8_vc-relax.save/O.uspp.pbe.UPF
     MD5 check sum: bc035ce127357c107da78e4640aecd7f
     Pseudo is Ultrasoft, Zval =  6.0
     Generated by new atomic code, or converted to UPF format
     Using radial grid of  737 points,  4 beta functions with: 
                l(1) =   0
                l(2) =   0
                l(3) =   1
                l(4) =   1
     Q(r) pseudized with  8 coefficients,  rinner =    0.700   0.700   0.700



     Atomic displacements:
     There are 264 irreducible representations

     Representation     1      1 modes -A_g  Done

     Representation     2      1 modes -A_g  Done

     Representation     3      1 modes -A_g  Done

     Representation     4      1 modes -A_g  Done

     Representation     5      1 modes -A_g  Done

     Representation     6      1 modes -A_g  Done

     Representation     7      1 modes -A_g  Done

     Representation     8      1 modes -A_g  Done

     Representation     9      1 modes -A_g  Done

     Representation    10      1 modes -A_g  Done

     Representation    11      1 modes -A_g  Done

     Representation    12      1 modes -A_g  Done

     Representation    13      1 modes -A_g  Done

     Representation    14      1 modes -A_g  Done

     Representation    15      1 modes -A_g  Done

     Representation    16      1 modes -A_g  Done

     Representation    17      1 modes -A_g  Done

     Representation    18      1 modes -A_g  Done

     Representation    19      1 modes -A_g  Done

     Representation    20      1 modes -A_g  Done

     Representation    21      1 modes -A_g  Done

     Representation    22      1 modes -A_g  Done

     Representation    23      1 modes -A_g  Done

     Representation    24      1 modes -A_g  Done

     Representation    25      1 modes -A_g  Done

     Representation    26      1 modes -A_g  Done

     Representation    27      1 modes -A_g  Done

     Representation    28      1 modes -A_g  Done

     Representation    29      1 modes -A_g  Done

     Representation    30      1 modes -A_g  Done

     Representation    31      1 modes -A_g  Done

     Representation    32      1 modes -A_g  Done

     Representation    33      1 modes -A_g  Done

     Representation    34      1 modes -B_1g  Done

     Representation    35      1 modes -B_1g  Done

     Representation    36      1 modes -B_1g  Done

     Representation    37      1 modes -B_1g  Done

     Representation    38      1 modes -B_1g  Done

     Representation    39      1 modes -B_1g  Done

     Representation    40      1 modes -B_1g  Done

     Representation    41      1 modes -B_1g  Done

     Representation    42      1 modes -B_1g  Done

     Representation    43      1 modes -B_1g  Done

     Representation    44      1 modes -B_1g  Done

     Representation    45      1 modes -B_1g  Done

     Representation    46      1 modes -B_1g  Done

     Representation    47      1 modes -B_1g  Done

     Representation    48      1 modes -B_1g  Done

     Representation    49      1 modes -B_1g  Done

     Representation    50      1 modes -B_1g  Done

     Representation    51      1 modes -B_1g  Done

     Representation    52      1 modes -B_1g  Done

     Representation    53      1 modes -B_1g  Done

     Representation    54      1 modes -B_1g  Done

     Representation    55      1 modes -B_1g  Done

     Representation    56      1 modes -B_1g  Done

     Representation    57      1 modes -B_1g  Done

     Representation    58      1 modes -B_1g  Done

     Representation    59      1 modes -B_1g  Done

     Representation    60      1 modes -B_1g  Done

     Representation    61      1 modes -B_1g  Done

     Representation    62      1 modes -B_1g  Done

     Representation    63      1 modes -B_1g  Done

     Representation    64      1 modes -B_1g  Done

     Representation    65      1 modes -B_1g  Done

     Representation    66      1 modes -B_1g  Done

     Representation    67      1 modes -B_2g  Done

     Representation    68      1 modes -B_2g  Done

     Representation    69      1 modes -B_2g  Done

     Representation    70      1 modes -B_2g  Done

     Representation    71      1 modes -B_2g  Done

     Representation    72      1 modes -B_2g  Done

     Representation    73      1 modes -B_2g  Done

     Representation    74      1 modes -B_2g  Done

     Representation    75      1 modes -B_2g  Done

     Representation    76      1 modes -B_2g  Done

     Representation    77      1 modes -B_2g  Done

     Representation    78      1 modes -B_2g  Done

     Representation    79      1 modes -B_2g  Done

     Representation    80      1 modes -B_2g  Done

     Representation    81      1 modes -B_2g  Done

     Representation    82      1 modes -B_2g  Done

     Representation    83      1 modes -B_2g  Done

     Representation    84      1 modes -B_2g  Done

     Representation    85      1 modes -B_2g  Done

     Representation    86      1 modes -B_2g  Done

     Representation    87      1 modes -B_2g  Done

     Representation    88      1 modes -B_2g  Done

     Representation    89      1 modes -B_2g  Done

     Representation    90      1 modes -B_2g  Done

     Representation    91      1 modes -B_2g  Done

     Representation    92      1 modes -B_2g  Done

     Representation    93      1 modes -B_2g  Done

     Representation    94      1 modes -B_2g  Done

     Representation    95      1 modes -B_2g  Done

     Representation    96      1 modes -B_2g  Done

     Representation    97      1 modes -B_2g  Done

     Representation    98      1 modes -B_2g  Done

     Representation    99      1 modes -B_2g  Done

     Representation   100      1 modes -B_3g  Done

     Representation   101      1 modes -B_3g  Done

     Representation   102      1 modes -B_3g  Done

     Representation   103      1 modes -B_3g  Done

     Representation   104      1 modes -B_3g  Done

     Representation   105      1 modes -B_3g  Done

     Representation   106      1 modes -B_3g  Done

     Representation   107      1 modes -B_3g  Done

     Representation   108      1 modes -B_3g  Done

     Representation   109      1 modes -B_3g  Done

     Representation   110      1 modes -B_3g  Done

     Representation   111      1 modes -B_3g  Done

     Representation   112      1 modes -B_3g  Done

     Representation   113      1 modes -B_3g  Done

     Representation   114      1 modes -B_3g  Done

     Representation   115      1 modes -B_3g  Done

     Representation   116      1 modes -B_3g  Done

     Representation   117      1 modes -B_3g  Done

     Representation   118      1 modes -B_3g  Done

     Representation   119      1 modes -B_3g  Done

     Representation   120      1 modes -B_3g  Done

     Representation   121      1 modes -B_3g  Done

     Representation   122      1 modes -B_3g  Done

     Representation   123      1 modes -B_3g  Done

     Representation   124      1 modes -B_3g  Done

     Representation   125      1 modes -B_3g  Done

     Representation   126      1 modes -B_3g  Done

     Representation   127      1 modes -B_3g  Done

     Representation   128      1 modes -B_3g  Done

     Representation   129      1 modes -B_3g  Done

     Representation   130      1 modes -B_3g  Done

     Representation   131      1 modes -B_3g  Done

     Representation   132      1 modes -B_3g  Done

     Representation   133      1 modes -A_u  Done

     Representation   134      1 modes -A_u  Done

     Representation   135      1 modes -A_u  Done

     Representation   136      1 modes -A_u  Done

     Representation   137      1 modes -A_u  Done

     Representation   138      1 modes -A_u  Done

     Representation   139      1 modes -A_u  Done

     Representation   140      1 modes -A_u  Done

     Representation   141      1 modes -A_u  Done

     Representation   142      1 modes -A_u  Done

     Representation   143      1 modes -A_u  Done

     Representation   144      1 modes -A_u  Done

     Representation   145      1 modes -A_u  Done

     Representation   146      1 modes -A_u  Done

     Representation   147      1 modes -A_u  Done

     Representation   148      1 modes -A_u  Done

     Representation   149      1 modes -A_u  Done

     Representation   150      1 modes -A_u  Done

     Representation   151      1 modes -A_u  Done

     Representation   152      1 modes -A_u  Done

     Representation   153      1 modes -A_u  Done

     Representation   154      1 modes -A_u  Done

     Representation   155      1 modes -A_u  Done

     Representation   156      1 modes -A_u  Done

     Representation   157      1 modes -A_u  Done

     Representation   158      1 modes -A_u  Done

     Representation   159      1 modes -A_u  Done

     Representation   160      1 modes -A_u  Done

     Representation   161      1 modes -A_u  Done

     Representation   162      1 modes -A_u  Done

     Representation   163      1 modes -A_u  Done

     Representation   164      1 modes -A_u  Done

     Representation   165      1 modes -A_u  Done

     Representation   166      1 modes -B_1u  Done

     Representation   167      1 modes -B_1u  Done

     Representation   168      1 modes -B_1u  Done

     Representation   169      1 modes -B_1u  Done

     Representation   170      1 modes -B_1u  Done

     Representation   171      1 modes -B_1u  Done

     Representation   172      1 modes -B_1u  Done

     Representation   173      1 modes -B_1u  Done

     Representation   174      1 modes -B_1u  Done

     Representation   175      1 modes -B_1u  Done

     Representation   176      1 modes -B_1u  Done

     Representation   177      1 modes -B_1u  Done

     Representation   178      1 modes -B_1u  Done

     Representation   179      1 modes -B_1u  Done

     Representation   180      1 modes -B_1u  Done

     Representation   181      1 modes -B_1u  Done

     Representation   182      1 modes -B_1u  Done

     Representation   183      1 modes -B_1u  Done

     Representation   184      1 modes -B_1u  Done

     Representation   185      1 modes -B_1u  Done

     Representation   186      1 modes -B_1u  Done

     Representation   187      1 modes -B_1u  Done

     Representation   188      1 modes -B_1u  Done

     Representation   189      1 modes -B_1u  Done

     Representation   190      1 modes -B_1u  Done

     Representation   191      1 modes -B_1u  Done

     Representation   192      1 modes -B_1u  Done

     Representation   193      1 modes -B_1u  Done

     Representation   194      1 modes -B_1u  Done

     Representation   195      1 modes -B_1u  Done

     Representation   196      1 modes -B_1u  Done

     Representation   197      1 modes -B_1u  Done

     Representation   198      1 modes -B_1u  Done

     Representation   199      1 modes -B_2u  Done

     Representation   200      1 modes -B_2u  Done

     Representation   201      1 modes -B_2u  Done

     Representation   202      1 modes -B_2u  Done

     Representation   203      1 modes -B_2u  Done

     Representation   204      1 modes -B_2u  Done

     Representation   205      1 modes -B_2u  Done

     Representation   206      1 modes -B_2u  Done

     Representation   207      1 modes -B_2u  Done

     Representation   208      1 modes -B_2u  Done

     Representation   209      1 modes -B_2u  Done

     Representation   210      1 modes -B_2u  Done

     Representation   211      1 modes -B_2u  Done

     Representation   212      1 modes -B_2u  Done

     Representation   213      1 modes -B_2u  Done

     Representation   214      1 modes -B_2u  Done

     Representation   215      1 modes -B_2u  Done

     Representation   216      1 modes -B_2u  Done

     Representation   217      1 modes -B_2u  Done

     Representation   218      1 modes -B_2u  Done

     Representation   219      1 modes -B_2u  Done

     Representation   220      1 modes -B_2u  Done

     Representation   221      1 modes -B_2u  Done

     Representation   222      1 modes -B_2u  Done

     Representation   223      1 modes -B_2u  Done

     Representation   224      1 modes -B_2u  Done

     Representation   225      1 modes -B_2u  Done

     Representation   226      1 modes -B_2u  Done

     Representation   227      1 modes -B_2u  Done

     Representation   228      1 modes -B_2u  Done

     Representation   229      1 modes -B_2u  Done

     Representation   230      1 modes -B_2u  Done

     Representation   231      1 modes -B_2u  Done

     Representation   232      1 modes -B_3u To be done

     Representation   233      1 modes -B_3u To be done

     Representation   234      1 modes -B_3u To be done

     Representation   235      1 modes -B_3u To be done

     Representation   236      1 modes -B_3u To be done

     Representation   237      1 modes -B_3u To be done

     Representation   238      1 modes -B_3u To be done

     Representation   239      1 modes -B_3u To be done

     Representation   240      1 modes -B_3u To be done

     Representation   241      1 modes -B_3u To be done

     Representation   242      1 modes -B_3u To be done

     Representation   243      1 modes -B_3u To be done

     Representation   244      1 modes -B_3u To be done

     Representation   245      1 modes -B_3u To be done

     Representation   246      1 modes -B_3u To be done

     Representation   247      1 modes -B_3u To be done

     Representation   248      1 modes -B_3u To be done

     Representation   249      1 modes -B_3u To be done

     Representation   250      1 modes -B_3u To be done

     Representation   251      1 modes -B_3u To be done

     Representation   252      1 modes -B_3u To be done

     Representation   253      1 modes -B_3u To be done

     Representation   254      1 modes -B_3u To be done

     Representation   255      1 modes -B_3u To be done

     Representation   256      1 modes -B_3u To be done

     Representation   257      1 modes -B_3u To be done

     Representation   258      1 modes -B_3u To be done

     Representation   259      1 modes -B_3u To be done

     Representation   260      1 modes -B_3u To be done

     Representation   261      1 modes -B_3u To be done

     Representation   262      1 modes -B_3u To be done

     Representation   263      1 modes -B_3u To be done

     Representation   264      1 modes -B_3u To be done


     PHONON       :  9m 4.94s CPU    10m53.25s WALL



     Representation #232 mode # 232

     Self-consistent Calculation
 
     Pert. #  1: Fermi energy shift (Ry) =    -0.1169E+50    -0.6646E+36

      iter #   1 total cpu time :  3125.8 secs   av.it.:   5.0
      thresh= 0.100E-01 alpha_mix =  0.700 |ddv_scf|^2 =  0.577E-08
 
     Pert. #  1: Fermi energy shift (Ry) =     0.1827E+48     0.5192E+34

      iter #   2 total cpu time :  4107.6 secs   av.it.:  20.5
      thresh= 0.760E-05 alpha_mix =  0.700 |ddv_scf|^2 =  0.380E-08
 
     Pert. #  1: Fermi energy shift (Ry) =     0.4567E+47    -0.6490E+33

      iter #   3 total cpu time :  5090.3 secs   av.it.:  20.0
      thresh= 0.617E-05 alpha_mix =  0.700 |ddv_scf|^2 =  0.431E-08
 
     Pert. #  1: Fermi energy shift (Ry) =    -0.3654E+48     0.1014E+32

      iter #   4 total cpu time :  6029.3 secs   av.it.:  18.9
      thresh= 0.657E-05 alpha_mix =  0.700 |ddv_scf|^2 =  0.218E-09
 
     Pert. #  1: Fermi energy shift (Ry) =    -0.1827E+48    -0.6490E+33

      iter #   5 total cpu time :  6953.8 secs   av.it.:  19.0
      thresh= 0.148E-05 alpha_mix =  0.700 |ddv_scf|^2 =  0.553E-10
 
     Pert. #  1: Fermi energy shift (Ry) =    -0.4567E+47    -0.8113E+32

      iter #   6 total cpu time :  7841.7 secs   av.it.:  19.0
      thresh= 0.744E-06 alpha_mix =  0.700 |ddv_scf|^2 =  0.258E-11
 
     Pert. #  1: Fermi energy shift (Ry) =    -0.5709E+46    -0.1623E+33

      iter #   7 total cpu time :  8773.4 secs   av.it.:  20.0
      thresh= 0.161E-06 alpha_mix =  0.700 |ddv_scf|^2 =  0.109E-11
 
     Pert. #  1: Fermi energy shift (Ry) =     0.1142E+47    -0.1623E+33

      iter #   8 total cpu time :  9681.7 secs   av.it.:  19.5
      thresh= 0.104E-06 alpha_mix =  0.700 |ddv_scf|^2 =  0.168E-12
 
     Pert. #  1: Fermi energy shift (Ry) =     0.5709E+46    -0.1623E+33

      iter #   9 total cpu time : 10644.0 secs   av.it.:  19.9
      thresh= 0.410E-07 alpha_mix =  0.700 |ddv_scf|^2 =  0.525E-13
 
     Pert. #  1: Fermi energy shift (Ry) =     0.1427E+46    -0.8113E+32

      iter #  10 total cpu time : 11561.5 secs   av.it.:  20.0
      thresh= 0.229E-07 alpha_mix =  0.700 |ddv_scf|^2 =  0.456E-13
 
     Pert. #  1: Fermi energy shift (Ry) =     0.1142E+47    -0.1623E+33

      iter #  11 total cpu time : 12459.1 secs   av.it.:  18.5
      thresh= 0.214E-07 alpha_mix =  0.700 |ddv_scf|^2 =  0.605E-14

     End of self-consistent calculation

     Convergence has been achieved 


     Representation #233 mode # 233

     Self-consistent Calculation
 
     Pert. #  1: Fermi energy shift (Ry) =     0.4677E+50    -0.2492E+36

      iter #   1 total cpu time : 15212.1 secs   av.it.:   6.0
      thresh= 0.100E-01 alpha_mix =  0.700 |ddv_scf|^2 =  0.172E-07
 
     Pert. #  1: Fermi energy shift (Ry) =    -0.1096E+49     0.1623E+33

      iter #   2 total cpu time : 16196.4 secs   av.it.:  20.9
      thresh= 0.131E-04 alpha_mix =  0.700 |ddv_scf|^2 =  0.639E-07
 
     Pert. #  1: Fermi energy shift (Ry) =    -0.2192E+49     0.5192E+34

      iter #   3 total cpu time : 17107.4 secs   av.it.:  19.0
      thresh= 0.253E-04 alpha_mix =  0.700 |ddv_scf|^2 =  0.550E-08
 
     Pert. #  1: Fermi energy shift (Ry) =    -0.1370E+48     0.8113E+32

      iter #   4 total cpu time : 18054.5 secs   av.it.:  19.0
      thresh= 0.741E-05 alpha_mix =  0.700 |ddv_scf|^2 =  0.101E-08
 
     Pert. #  1: Fermi energy shift (Ry) =     0.5481E+48    -0.1623E+33

      iter #   5 total cpu time : 18948.5 secs   av.it.:  19.0
      thresh= 0.318E-05 alpha_mix =  0.700 |ddv_scf|^2 =  0.133E-09
 
     Pert. #  1: Fermi energy shift (Ry) =     0.1827E+48    -0.4868E+33

      iter #   6 total cpu time : 19879.8 secs   av.it.:  19.5
      thresh= 0.115E-05 alpha_mix =  0.700 |ddv_scf|^2 =  0.237E-10
 
     Pert. #  1: Fermi energy shift (Ry) =    -0.1370E+48     0.1014E+32

      iter #   7 total cpu time : 20753.9 secs   av.it.:  19.9
      thresh= 0.487E-06 alpha_mix =  0.700 |ddv_scf|^2 =  0.322E-11
 
     Pert. #  1: Fermi energy shift (Ry) =     0.8563E+46     0.1217E+33

      iter #   8 total cpu time : 21681.1 secs   av.it.:  20.0
      thresh= 0.180E-06 alpha_mix =  0.700 |ddv_scf|^2 =  0.274E-12
 
     Pert. #  1: Fermi energy shift (Ry) =    -0.2141E+46     0.4056E+32

      iter #   9 total cpu time : 22653.5 secs   av.it.:  20.0
      thresh= 0.523E-07 alpha_mix =  0.700 |ddv_scf|^2 =  0.160E-12
 
     Pert. #  1: Fermi energy shift (Ry) =    -0.3425E+47     0.4056E+32

      iter #  10 total cpu time : 23555.4 secs   av.it.:  19.9
      thresh= 0.400E-07 alpha_mix =  0.700 |ddv_scf|^2 =  0.552E-13
 
     Pert. #  1: Fermi energy shift (Ry) =     0.5709E+46     0.6085E+32

      iter #  11 total cpu time : 24535.7 secs   av.it.:  20.0
      thresh= 0.235E-07 alpha_mix =  0.700 |ddv_scf|^2 =  0.103E-12
 
     Pert. #  1: Fermi energy shift (Ry) =     0.4282E+46     0.4056E+32

      iter #  12 total cpu time : 25470.5 secs   av.it.:  19.0
      thresh= 0.321E-07 alpha_mix =  0.700 |ddv_scf|^2 =  0.144E-13
 
     Pert. #  1: Fermi energy shift (Ry) =    -0.5709E+46     0.4056E+32

      iter #  13 total cpu time : 26367.0 secs   av.it.:  18.0
      thresh= 0.120E-07 alpha_mix =  0.700 |ddv_scf|^2 =  0.321E-14

     End of self-consistent calculation

     Convergence has been achieved 


     Representation #234 mode # 234

     Self-consistent Calculation
 
     Pert. #  1: Fermi energy shift (Ry) =     0.1871E+51    -0.3323E+36

      iter #   1 total cpu time : 29135.0 secs   av.it.:   7.0
      thresh= 0.100E-01 alpha_mix =  0.700 |ddv_scf|^2 =  0.123E-06
 
     Pert. #  1: Fermi energy shift (Ry) =    -0.5846E+49    -0.6490E+33

      iter #   2 total cpu time : 30102.0 secs   av.it.:  20.0
      thresh= 0.350E-04 alpha_mix =  0.700 |ddv_scf|^2 =  0.799E-06
 
     Pert. #  1: Fermi energy shift (Ry) =    -0.1462E+49     0.1038E+35

      iter #   3 total cpu time : 30980.3 secs   av.it.:  18.0
      thresh= 0.894E-04 alpha_mix =  0.700 |ddv_scf|^2 =  0.273E-07
 
     Pert. #  1: Fermi energy shift (Ry) =     0.1462E+49     0.2596E+34

      iter #   4 total cpu time : 31901.5 secs   av.it.:  18.5
      thresh= 0.165E-04 alpha_mix =  0.700 |ddv_scf|^2 =  0.287E-08
 
     Pert. #  1: Fermi energy shift (Ry) =     0.1827E+48    -0.6490E+33

      iter #   5 total cpu time : 32822.5 secs   av.it.:  19.0
      thresh= 0.536E-05 alpha_mix =  0.700 |ddv_scf|^2 =  0.185E-09
 
     Pert. #  1: Fermi energy shift (Ry) =     0.9134E+47    -0.1623E+33

      iter #   6 total cpu time : 33769.2 secs   av.it.:  19.1
      thresh= 0.136E-05 alpha_mix =  0.700 |ddv_scf|^2 =  0.284E-10
 
     Pert. #  1: Fermi energy shift (Ry) =     0.1427E+46    -0.4056E+32

      iter #   7 total cpu time : 34720.1 secs   av.it.:  19.9
      thresh= 0.533E-06 alpha_mix =  0.700 |ddv_scf|^2 =  0.108E-10
 
     Pert. #  1: Fermi energy shift (Ry) =     0.0000E+00     0.4056E+32

      iter #   8 total cpu time : 35608.7 secs   av.it.:  19.0
      thresh= 0.328E-06 alpha_mix =  0.700 |ddv_scf|^2 =  0.643E-13
 
     Pert. #  1: Fermi energy shift (Ry) =     0.0000E+00     0.1014E+32

      iter #   9 total cpu time : 36589.7 secs   av.it.:  21.0
      thresh= 0.254E-07 alpha_mix =  0.700 |ddv_scf|^2 =  0.123E-12
 
     Pert. #  1: Fermi energy shift (Ry) =    -0.1142E+47     0.5071E+31

      iter #  10 total cpu time : 37486.1 secs   av.it.:  19.9
      thresh= 0.351E-07 alpha_mix =  0.700 |ddv_scf|^2 =  0.204E-13
 
     Pert. #  1: Fermi energy shift (Ry) =    -0.5709E+46     0.1014E+32

      iter #  11 total cpu time : 38371.1 secs   av.it.:  19.9
      thresh= 0.143E-07 alpha_mix =  0.700 |ddv_scf|^2 =  0.120E-13
 
     Pert. #  1: Fermi energy shift (Ry) =    -0.1142E+47     0.1014E+32

      iter #  12 total cpu time : 39262.5 secs   av.it.:  19.0
      thresh= 0.110E-07 alpha_mix =  0.700 |ddv_scf|^2 =  0.192E-14

     End of self-consistent calculation

     Convergence has been achieved 


     Representation #235 mode # 235

     Self-consistent Calculation
 
     Pert. #  1: Fermi energy shift (Ry) =    -0.4789E+53     0.1662E+36

      iter #   1 total cpu time : 41992.7 secs   av.it.:   6.0
      thresh= 0.100E-01 alpha_mix =  0.700 |ddv_scf|^2 =  0.273E-07
 
     Pert. #  1: Fermi energy shift (Ry) =     0.5846E+49    -0.2596E+34

      iter #   2 total cpu time : 42980.5 secs   av.it.:  20.5
      thresh= 0.165E-04 alpha_mix =  0.700 |ddv_scf|^2 =  0.120E-06
 
     Pert. #  1: Fermi energy shift (Ry) =    -0.2923E+49     0.1298E+34

      iter #   3 total cpu time : 43897.5 secs   av.it.:  18.6
      thresh= 0.347E-04 alpha_mix =  0.700 |ddv_scf|^2 =  0.816E-08
 
     Pert. #  1: Fermi energy shift (Ry) =    -0.3654E+48    -0.1298E+34

      iter #   4 total cpu time : 44741.9 secs   av.it.:  18.0
      thresh= 0.903E-05 alpha_mix =  0.700 |ddv_scf|^2 =  0.852E-09
 
     Pert. #  1: Fermi energy shift (Ry) =     0.9134E+47     0.3245E+33

      iter #   5 total cpu time : 45639.6 secs   av.it.:  19.0
      thresh= 0.292E-05 alpha_mix =  0.700 |ddv_scf|^2 =  0.308E-10
 
     Pert. #  1: Fermi energy shift (Ry) =    -0.2284E+47    -0.2028E+32

      iter #   6 total cpu time : 46551.0 secs   av.it.:  20.0
      thresh= 0.555E-06 alpha_mix =  0.700 |ddv_scf|^2 =  0.185E-10
 
     Pert. #  1: Fermi energy shift (Ry) =    -0.2284E+47    -0.4056E+32

      iter #   7 total cpu time : 47459.2 secs   av.it.:  19.4
      thresh= 0.430E-06 alpha_mix =  0.700 |ddv_scf|^2 =  0.706E-12
 
     Pert. #  1: Fermi energy shift (Ry) =    -0.1142E+47    -0.1014E+32

      iter #   8 total cpu time : 48336.6 secs   av.it.:  20.0
      thresh= 0.840E-07 alpha_mix =  0.700 |ddv_scf|^2 =  0.293E-12
 
     Pert. #  1: Fermi energy shift (Ry) =    -0.2854E+46     0.7923E+29

      iter #   9 total cpu time : 49233.1 secs   av.it.:  20.0
      thresh= 0.541E-07 alpha_mix =  0.700 |ddv_scf|^2 =  0.128E-12
 
     Pert. #  1: Fermi energy shift (Ry) =    -0.4567E+47    -0.5071E+31

      iter #  10 total cpu time : 50133.5 secs   av.it.:  19.6
      thresh= 0.357E-07 alpha_mix =  0.700 |ddv_scf|^2 =  0.273E-13
 
     Pert. #  1: Fermi energy shift (Ry) =    -0.2284E+47    -0.5071E+31

      iter #  11 total cpu time : 51017.3 secs   av.it.:  20.0
      thresh= 0.165E-07 alpha_mix =  0.700 |ddv_scf|^2 =  0.293E-13
 
     Pert. #  1: Fermi energy shift (Ry) =    -0.1142E+47    -0.5071E+31

      iter #  12 total cpu time : 51899.2 secs   av.it.:  18.9
      thresh= 0.171E-07 alpha_mix =  0.700 |ddv_scf|^2 =  0.997E-15

     End of self-consistent calculation

     Convergence has been achieved 


     Representation #236 mode # 236

     Self-consistent Calculation
 
     Pert. #  1: Fermi energy shift (Ry) =    -0.1871E+51    -0.8308E+35

      iter #   1 total cpu time : 54644.7 secs   av.it.:   6.0
      thresh= 0.100E-01 alpha_mix =  0.700 |ddv_scf|^2 =  0.293E-07
 
     Pert. #  1: Fermi energy shift (Ry) =     0.0000E+00    -0.1298E+34

      iter #   2 total cpu time : 55630.9 secs   av.it.:  20.0
      thresh= 0.171E-04 alpha_mix =  0.700 |ddv_scf|^2 =  0.141E-06
 
     Pert. #  1: Fermi energy shift (Ry) =     0.0000E+00    -0.2596E+34

      iter #   3 total cpu time : 56493.2 secs   av.it.:  18.0
      thresh= 0.375E-04 alpha_mix =  0.700 |ddv_scf|^2 =  0.113E-07
 
     Pert. #  1: Fermi energy shift (Ry) =    -0.1462E+49     0.1623E+33

      iter #   4 total cpu time : 57357.5 secs   av.it.:  18.1
      thresh= 0.106E-04 alpha_mix =  0.700 |ddv_scf|^2 =  0.102E-08
 
     Pert. #  1: Fermi energy shift (Ry) =     0.0000E+00     0.1623E+33

      iter #   5 total cpu time : 58265.1 secs   av.it.:  19.2
      thresh= 0.320E-05 alpha_mix =  0.700 |ddv_scf|^2 =  0.222E-09
 
     Pert. #  1: Fermi energy shift (Ry) =     0.1142E+47    -0.1623E+33

      iter #   6 total cpu time : 59161.3 secs   av.it.:  19.0
      thresh= 0.149E-05 alpha_mix =  0.700 |ddv_scf|^2 =  0.892E-11
 
     Pert. #  1: Fermi energy shift (Ry) =     0.2854E+46     0.1014E+32

      iter #   7 total cpu time : 60090.1 secs   av.it.:  20.0
      thresh= 0.299E-06 alpha_mix =  0.700 |ddv_scf|^2 =  0.402E-11
 
     Pert. #  1: Fermi energy shift (Ry) =    -0.2854E+46     0.0000E+00

      iter #   8 total cpu time : 61031.1 secs   av.it.:  19.9
      thresh= 0.201E-06 alpha_mix =  0.700 |ddv_scf|^2 =  0.341E-12
 
     Pert. #  1: Fermi energy shift (Ry) =    -0.2854E+46     0.0000E+00

      iter #   9 total cpu time : 61977.4 secs   av.it.:  20.0
      thresh= 0.584E-07 alpha_mix =  0.700 |ddv_scf|^2 =  0.263E-12
 
     Pert. #  1: Fermi energy shift (Ry) =     0.0000E+00     0.2028E+32

      iter #  10 total cpu time : 62896.6 secs   av.it.:  19.6
      thresh= 0.513E-07 alpha_mix =  0.700 |ddv_scf|^2 =  0.421E-13
 
     Pert. #  1: Fermi energy shift (Ry) =     0.0000E+00     0.0000E+00

      iter #  11 total cpu time : 63818.4 secs   av.it.:  20.0
      thresh= 0.205E-07 alpha_mix =  0.700 |ddv_scf|^2 =  0.692E-13
 
     Pert. #  1: Fermi energy shift (Ry) =     0.0000E+00     0.0000E+00

      iter #  12 total cpu time : 64729.7 secs   av.it.:  19.0
      thresh= 0.263E-07 alpha_mix =  0.700 |ddv_scf|^2 =  0.416E-14

     End of self-consistent calculation

     Convergence has been achieved 


     Representation #237 mode # 237

     Self-consistent Calculation
 
     Pert. #  1: Fermi energy shift (Ry) =     0.1169E+51     0.7975E+37

      iter #   1 total cpu time : 67523.8 secs   av.it.:   6.0
      thresh= 0.100E-01 alpha_mix =  0.700 |ddv_scf|^2 =  0.219E-07
 
     Pert. #  1: Fermi energy shift (Ry) =     0.1827E+48    -0.7788E+34

      iter #   2 total cpu time : 68490.8 secs   av.it.:  20.9
      thresh= 0.148E-04 alpha_mix =  0.700 |ddv_scf|^2 =  0.107E-06
 
     Pert. #  1: Fermi energy shift (Ry) =     0.2923E+49    -0.5192E+34

      iter #   3 total cpu time : 69368.5 secs   av.it.:  18.0
      thresh= 0.328E-04 alpha_mix =  0.700 |ddv_scf|^2 =  0.716E-08
 
     Pert. #  1: Fermi energy shift (Ry) =     0.3654E+48    -0.7788E+34

      iter #   4 total cpu time : 70265.3 secs   av.it.:  19.0
      thresh= 0.846E-05 alpha_mix =  0.700 |ddv_scf|^2 =  0.944E-09
 
     Pert. #  1: Fermi energy shift (Ry) =     0.1462E+49    -0.3245E+33

      iter #   5 total cpu time : 71139.7 secs   av.it.:  19.0
      thresh= 0.307E-05 alpha_mix =  0.700 |ddv_scf|^2 =  0.155E-09
 
     Pert. #  1: Fermi energy shift (Ry) =     0.2284E+48     0.2028E+32

      iter #   6 total cpu time : 72063.3 secs   av.it.:  19.9
      thresh= 0.125E-05 alpha_mix =  0.700 |ddv_scf|^2 =  0.704E-11
 
     Pert. #  1: Fermi energy shift (Ry) =     0.2284E+47    -0.2434E+33

      iter #   7 total cpu time : 73035.4 secs   av.it.:  20.0
      thresh= 0.265E-06 alpha_mix =  0.700 |ddv_scf|^2 =  0.290E-11
 
     Pert. #  1: Fermi energy shift (Ry) =     0.2141E+46    -0.1623E+33

      iter #   8 total cpu time : 73939.3 secs   av.it.:  20.0
      thresh= 0.170E-06 alpha_mix =  0.700 |ddv_scf|^2 =  0.276E-12
 
     Pert. #  1: Fermi energy shift (Ry) =    -0.1784E+46    -0.2028E+33

      iter #   9 total cpu time : 74869.1 secs   av.it.:  20.0
      thresh= 0.525E-07 alpha_mix =  0.700 |ddv_scf|^2 =  0.506E-13
 
     Pert. #  1: Fermi energy shift (Ry) =    -0.2854E+46    -0.2028E+33

      iter #  10 total cpu time : 75851.2 secs   av.it.:  20.9
      thresh= 0.225E-07 alpha_mix =  0.700 |ddv_scf|^2 =  0.595E-13
 
     Pert. #  1: Fermi energy shift (Ry) =     0.1142E+47    -0.1623E+33

      iter #  11 total cpu time : 76773.3 secs   av.it.:  19.2
      thresh= 0.244E-07 alpha_mix =  0.700 |ddv_scf|^2 =  0.154E-13
 
     Pert. #  1: Fermi energy shift (Ry) =    -0.5709E+46    -0.2028E+33

      iter #  12 total cpu time : 77672.5 secs   av.it.:  19.5
      thresh= 0.124E-07 alpha_mix =  0.700 |ddv_scf|^2 =  0.180E-14

     End of self-consistent calculation

     Convergence has been achieved 


     Representation #238 mode # 238

     Self-consistent Calculation
 
     Pert. #  1: Fermi energy shift (Ry) =     0.0000E+00     0.0000E+00

      iter #   1 total cpu time : 80383.4 secs   av.it.:   6.0
      thresh= 0.100E-01 alpha_mix =  0.700 |ddv_scf|^2 =  0.315E-07
 
     Pert. #  1: Fermi energy shift (Ry) =    -0.9134E+47     0.0000E+00

      iter #   2 total cpu time : 81319.0 secs   av.it.:  20.9
      thresh= 0.178E-04 alpha_mix =  0.700 |ddv_scf|^2 =  0.980E-07
 
     Pert. #  1: Fermi energy shift (Ry) =    -0.5846E+49     0.0000E+00

      iter #   3 total cpu time : 82261.1 secs   av.it.:  19.0
      thresh= 0.313E-04 alpha_mix =  0.700 |ddv_scf|^2 =  0.120E-07
 
     Pert. #  1: Fermi energy shift (Ry) =    -0.1462E+49     0.0000E+00

      iter #   4 total cpu time : 83166.8 secs   av.it.:  19.0
      thresh= 0.110E-04 alpha_mix =  0.700 |ddv_scf|^2 =  0.113E-08
 
     Pert. #  1: Fermi energy shift (Ry) =     0.1827E+48     0.0000E+00

      iter #   5 total cpu time : 84063.1 secs   av.it.:  18.9
      thresh= 0.336E-05 alpha_mix =  0.700 |ddv_scf|^2 =  0.426E-10
 
     Pert. #  1: Fermi energy shift (Ry) =     0.4567E+47     0.0000E+00

      iter #   6 total cpu time : 84984.4 secs   av.it.:  19.9
      thresh= 0.653E-06 alpha_mix =  0.700 |ddv_scf|^2 =  0.324E-10
 
     Pert. #  1: Fermi energy shift (Ry) =    -0.2284E+47     0.0000E+00

      iter #   7 total cpu time : 85864.9 secs   av.it.:  18.9
      thresh= 0.570E-06 alpha_mix =  0.700 |ddv_scf|^2 =  0.148E-11
 
     Pert. #  1: Fermi energy shift (Ry) =     0.2854E+46     0.0000E+00

      iter #   8 total cpu time : 86805.3 secs   av.it.:  20.0
      thresh= 0.122E-06 alpha_mix =  0.700 |ddv_scf|^2 =  0.220E-12
 
     Pert. #  1: Fermi energy shift (Ry) =     0.0000E+00     0.0000E+00

      iter #   9 total cpu time : 87734.5 secs   av.it.:  20.5
      thresh= 0.469E-07 alpha_mix =  0.700 |ddv_scf|^2 =  0.174E-12
 
     Pert. #  1: Fermi energy shift (Ry) =     0.5709E+46     0.0000E+00

      iter #  10 total cpu time : 88684.5 secs   av.it.:  19.9
      thresh= 0.417E-07 alpha_mix =  0.700 |ddv_scf|^2 =  0.932E-14

     End of self-consistent calculation

     Convergence has been achieved 


     Representation #239 mode # 239

     Self-consistent Calculation
 
     Pert. #  1: Fermi energy shift (Ry) =    -0.4677E+50     0.0000E+00

      iter #   1 total cpu time : 91411.9 secs   av.it.:   5.9
      thresh= 0.100E-01 alpha_mix =  0.700 |ddv_scf|^2 =  0.121E-07
 
     Pert. #  1: Fermi energy shift (Ry) =    -0.9134E+47     0.0000E+00

      iter #   2 total cpu time : 92389.4 secs   av.it.:  20.9
      thresh= 0.110E-04 alpha_mix =  0.700 |ddv_scf|^2 =  0.412E-07
 
     Pert. #  1: Fermi energy shift (Ry) =     0.0000E+00     0.0000E+00

      iter #   3 total cpu time : 93310.5 secs   av.it.:  19.0
      thresh= 0.203E-04 alpha_mix =  0.700 |ddv_scf|^2 =  0.416E-08
 
     Pert. #  1: Fermi energy shift (Ry) =     0.0000E+00     0.0000E+00

      iter #   4 total cpu time : 94203.2 secs   av.it.:  19.0
      thresh= 0.645E-05 alpha_mix =  0.700 |ddv_scf|^2 =  0.875E-09
 
     Pert. #  1: Fermi energy shift (Ry) =    -0.3654E+48     0.0000E+00

      iter #   5 total cpu time : 95097.7 secs   av.it.:  18.9
      thresh= 0.296E-05 alpha_mix =  0.700 |ddv_scf|^2 =  0.696E-10
 
     Pert. #  1: Fermi energy shift (Ry) =     0.5709E+46     0.0000E+00

      iter #   6 total cpu time : 96005.6 secs   av.it.:  19.9
      thresh= 0.834E-06 alpha_mix =  0.700 |ddv_scf|^2 =  0.265E-10
 
     Pert. #  1: Fermi energy shift (Ry) =     0.0000E+00     0.0000E+00

      iter #   7 total cpu time : 96903.4 secs   av.it.:  19.0
      thresh= 0.515E-06 alpha_mix =  0.700 |ddv_scf|^2 =  0.279E-11
 
     Pert. #  1: Fermi energy shift (Ry) =    -0.5709E+46     0.0000E+00

      iter #   8 total cpu time : 97805.0 secs   av.it.:  20.0
      thresh= 0.167E-06 alpha_mix =  0.700 |ddv_scf|^2 =  0.287E-12
 
     Pert. #  1: Fermi energy shift (Ry) =     0.1142E+47     0.0000E+00

      iter #   9 total cpu time : 98730.6 secs   av.it.:  20.0
      thresh= 0.535E-07 alpha_mix =  0.700 |ddv_scf|^2 =  0.123E-12
 
     Pert. #  1: Fermi energy shift (Ry) =     0.0000E+00     0.0000E+00

      iter #  10 total cpu time : 99686.8 secs   av.it.:  20.0
      thresh= 0.351E-07 alpha_mix =  0.700 |ddv_scf|^2 =  0.402E-13
 
     Pert. #  1: Fermi energy shift (Ry) =     0.0000E+00     0.0000E+00

      iter #  11 total cpu time :100654.3 secs   av.it.:  20.8
      thresh= 0.201E-07 alpha_mix =  0.700 |ddv_scf|^2 =  0.853E-13
 
     Pert. #  1: Fermi energy shift (Ry) =     0.0000E+00     0.0000E+00

      iter #  12 total cpu time :101526.3 secs   av.it.:  19.0
      thresh= 0.292E-07 alpha_mix =  0.700 |ddv_scf|^2 =  0.472E-14

     End of self-consistent calculation

     Convergence has been achieved 


     Representation #240 mode # 240

     Self-consistent Calculation
 
     Pert. #  1: Fermi energy shift (Ry) =     0.1871E+51     0.6646E+36

      iter #   1 total cpu time :104282.1 secs   av.it.:   6.0
      thresh= 0.100E-01 alpha_mix =  0.700 |ddv_scf|^2 =  0.140E-07
 
     Pert. #  1: Fermi energy shift (Ry) =     0.3654E+48     0.3245E+33

      iter #   2 total cpu time :105190.7 secs   av.it.:  21.0
      thresh= 0.118E-04 alpha_mix =  0.700 |ddv_scf|^2 =  0.441E-07
 
     Pert. #  1: Fermi energy shift (Ry) =     0.3654E+48     0.6490E+33

      iter #   3 total cpu time :106104.5 secs   av.it.:  19.5
      thresh= 0.210E-04 alpha_mix =  0.700 |ddv_scf|^2 =  0.559E-08
 
     Pert. #  1: Fermi energy shift (Ry) =     0.3654E+48     0.3245E+33

      iter #   4 total cpu time :106977.2 secs   av.it.:  19.0
      thresh= 0.748E-05 alpha_mix =  0.700 |ddv_scf|^2 =  0.101E-08
 
     Pert. #  1: Fermi energy shift (Ry) =     0.1142E+47     0.5071E+31

      iter #   5 total cpu time :107910.8 secs   av.it.:  19.0
      thresh= 0.318E-05 alpha_mix =  0.700 |ddv_scf|^2 =  0.865E-10
 
     Pert. #  1: Fermi energy shift (Ry) =    -0.1142E+47     0.8113E+32

      iter #   6 total cpu time :108818.9 secs   av.it.:  20.0
      thresh= 0.930E-06 alpha_mix =  0.700 |ddv_scf|^2 =  0.509E-11
 
     Pert. #  1: Fermi energy shift (Ry) =     0.1142E+47    -0.2028E+32

      iter #   7 total cpu time :109782.0 secs   av.it.:  20.1
      thresh= 0.226E-06 alpha_mix =  0.700 |ddv_scf|^2 =  0.296E-11
 
     Pert. #  1: Fermi energy shift (Ry) =     0.4567E+47    -0.1014E+32

      iter #   8 total cpu time :110690.9 secs   av.it.:  19.9
      thresh= 0.172E-06 alpha_mix =  0.700 |ddv_scf|^2 =  0.228E-12
 
     Pert. #  1: Fermi energy shift (Ry) =     0.2284E+47    -0.6338E+30

      iter #   9 total cpu time :111643.4 secs   av.it.:  20.0
      thresh= 0.478E-07 alpha_mix =  0.700 |ddv_scf|^2 =  0.711E-13
 
     Pert. #  1: Fermi energy shift (Ry) =     0.1142E+47     0.5071E+31

      iter #  10 total cpu time :112600.1 secs   av.it.:  20.0
      thresh= 0.267E-07 alpha_mix =  0.700 |ddv_scf|^2 =  0.328E-13
 
     Pert. #  1: Fermi energy shift (Ry) =     0.1142E+47     0.1268E+31

      iter #  11 total cpu time :113525.7 secs   av.it.:  19.5
      thresh= 0.181E-07 alpha_mix =  0.700 |ddv_scf|^2 =  0.106E-13
 
     Pert. #  1: Fermi energy shift (Ry) =     0.1142E+47     0.1268E+31

      iter #  12 total cpu time :114517.7 secs   av.it.:  20.0
      thresh= 0.103E-07 alpha_mix =  0.700 |ddv_scf|^2 =  0.578E-14

     End of self-consistent calculation

     Convergence has been achieved 


     Representation #241 mode # 241

     Self-consistent Calculation
 
     Pert. #  1: Fermi energy shift (Ry) =     0.1871E+51     0.3323E+36

      iter #   1 total cpu time :117256.2 secs   av.it.:   6.0
      thresh= 0.100E-01 alpha_mix =  0.700 |ddv_scf|^2 =  0.111E-07
 
     Pert. #  1: Fermi energy shift (Ry) =    -0.7308E+48    -0.3245E+33

      iter #   2 total cpu time :118220.3 secs   av.it.:  21.0
      thresh= 0.105E-04 alpha_mix =  0.700 |ddv_scf|^2 =  0.266E-07
 
     Pert. #  1: Fermi energy shift (Ry) =    -0.2284E+47     0.6490E+33

      iter #   3 total cpu time :119146.2 secs   av.it.:  19.9
      thresh= 0.163E-04 alpha_mix =  0.700 |ddv_scf|^2 =  0.358E-08
 
     Pert. #  1: Fermi energy shift (Ry) =    -0.3654E+48    -0.6490E+33

      iter #   4 total cpu time :120086.6 secs   av.it.:  19.9
      thresh= 0.599E-05 alpha_mix =  0.700 |ddv_scf|^2 =  0.687E-09
 
     Pert. #  1: Fermi energy shift (Ry) =     0.9134E+47    -0.8113E+32

      iter #   5 total cpu time :120969.1 secs   av.it.:  18.0
      thresh= 0.262E-05 alpha_mix =  0.700 |ddv_scf|^2 =  0.714E-10
 
     Pert. #  1: Fermi energy shift (Ry) =    -0.4567E+47     0.1623E+33

      iter #   6 total cpu time :121873.5 secs   av.it.:  19.9
      thresh= 0.845E-06 alpha_mix =  0.700 |ddv_scf|^2 =  0.120E-10
 
     Pert. #  1: Fermi energy shift (Ry) =    -0.2854E+46     0.2535E+31

      iter #   7 total cpu time :122763.6 secs   av.it.:  19.0
      thresh= 0.347E-06 alpha_mix =  0.700 |ddv_scf|^2 =  0.317E-11
 
     Pert. #  1: Fermi energy shift (Ry) =     0.1142E+47    -0.2028E+32

      iter #   8 total cpu time :123707.8 secs   av.it.:  19.8
      thresh= 0.178E-06 alpha_mix =  0.700 |ddv_scf|^2 =  0.287E-12
 
     Pert. #  1: Fermi energy shift (Ry) =     0.1142E+47     0.1014E+32

      iter #   9 total cpu time :124617.8 secs   av.it.:  19.9
      thresh= 0.536E-07 alpha_mix =  0.700 |ddv_scf|^2 =  0.107E-12
 
     Pert. #  1: Fermi energy shift (Ry) =     0.1142E+47     0.5071E+31

      iter #  10 total cpu time :125550.1 secs   av.it.:  19.9
      thresh= 0.327E-07 alpha_mix =  0.700 |ddv_scf|^2 =  0.515E-13
 
     Pert. #  1: Fermi energy shift (Ry) =     0.5709E+46     0.2535E+31

      iter #  11 total cpu time :126519.2 secs   av.it.:  20.0
      thresh= 0.227E-07 alpha_mix =  0.700 |ddv_scf|^2 =  0.393E-13
 
     Pert. #  1: Fermi energy shift (Ry) =     0.1427E+46     0.5071E+31

      iter #  12 total cpu time :127427.1 secs   av.it.:  19.0
      thresh= 0.198E-07 alpha_mix =  0.700 |ddv_scf|^2 =  0.388E-14

     End of self-consistent calculation

     Convergence has been achieved 


     Representation #242 mode # 242

     Self-consistent Calculation
 
     Pert. #  1: Fermi energy shift (Ry) =     0.1122E+52    -0.9969E+36

      iter #   1 total cpu time :130084.8 secs   av.it.:   6.0
      thresh= 0.100E-01 alpha_mix =  0.700 |ddv_scf|^2 =  0.162E-07
 
     Pert. #  1: Fermi energy shift (Ry) =     0.2192E+49    -0.1947E+34

      iter #   2 total cpu time :131084.2 secs   av.it.:  20.9
      thresh= 0.127E-04 alpha_mix =  0.700 |ddv_scf|^2 =  0.450E-07
 
     Pert. #  1: Fermi energy shift (Ry) =     0.2923E+49    -0.4868E+33

      iter #   3 total cpu time :132019.9 secs   av.it.:  19.0
      thresh= 0.212E-04 alpha_mix =  0.700 |ddv_scf|^2 =  0.455E-08
 
     Pert. #  1: Fermi energy shift (Ry) =     0.1827E+48    -0.6085E+32

      iter #   4 total cpu time :132934.5 secs   av.it.:  19.6
      thresh= 0.675E-05 alpha_mix =  0.700 |ddv_scf|^2 =  0.514E-09
 
     Pert. #  1: Fermi energy shift (Ry) =     0.4567E+47     0.4868E+33

      iter #   5 total cpu time :133825.4 secs   av.it.:  19.0
      thresh= 0.227E-05 alpha_mix =  0.700 |ddv_scf|^2 =  0.145E-09
 
     Pert. #  1: Fermi energy shift (Ry) =     0.1827E+48    -0.2434E+33

      iter #   6 total cpu time :134787.5 secs   av.it.:  19.2
      thresh= 0.120E-05 alpha_mix =  0.700 |ddv_scf|^2 =  0.200E-10
 
     Pert. #  1: Fermi energy shift (Ry) =     0.3425E+47    -0.1217E+33

      iter #   7 total cpu time :135719.6 secs   av.it.:  19.0
      thresh= 0.447E-06 alpha_mix =  0.700 |ddv_scf|^2 =  0.472E-11
 
     Pert. #  1: Fermi energy shift (Ry) =     0.1370E+48    -0.1217E+33

      iter #   8 total cpu time :136652.8 secs   av.it.:  19.9
      thresh= 0.217E-06 alpha_mix =  0.700 |ddv_scf|^2 =  0.507E-12
 
     Pert. #  1: Fermi energy shift (Ry) =     0.4567E+47    -0.1521E+32

      iter #   9 total cpu time :137537.6 secs   av.it.:  20.0
      thresh= 0.712E-07 alpha_mix =  0.700 |ddv_scf|^2 =  0.214E-12
 
     Pert. #  1: Fermi energy shift (Ry) =     0.4567E+47    -0.3042E+32

      iter #  10 total cpu time :138478.9 secs   av.it.:  19.9
      thresh= 0.463E-07 alpha_mix =  0.700 |ddv_scf|^2 =  0.522E-13
 
     Pert. #  1: Fermi energy shift (Ry) =     0.4567E+47    -0.3042E+32

      iter #  11 total cpu time :139393.7 secs   av.it.:  20.0
      thresh= 0.229E-07 alpha_mix =  0.700 |ddv_scf|^2 =  0.805E-13
 
     Pert. #  1: Fermi energy shift (Ry) =     0.1370E+48    -0.3042E+32

      iter #  12 total cpu time :140305.3 secs   av.it.:  19.0
      thresh= 0.284E-07 alpha_mix =  0.700 |ddv_scf|^2 =  0.344E-14

     End of self-consistent calculation

     Convergence has been achieved 


     Representation #243 mode # 243

     Self-consistent Calculation
 
     Pert. #  1: Fermi energy shift (Ry) =     0.2993E+52    -0.1329E+37

      iter #   1 total cpu time :143003.1 secs   av.it.:   6.0
      thresh= 0.100E-01 alpha_mix =  0.700 |ddv_scf|^2 =  0.126E-07
 
     Pert. #  1: Fermi energy shift (Ry) =     0.1462E+49    -0.1298E+34

      iter #   2 total cpu time :143953.7 secs   av.it.:  21.0
      thresh= 0.112E-04 alpha_mix =  0.700 |ddv_scf|^2 =  0.467E-07
 
     Pert. #  1: Fermi energy shift (Ry) =    -0.7308E+48    -0.2596E+34

      iter #   3 total cpu time :144845.1 secs   av.it.:  19.0
      thresh= 0.216E-04 alpha_mix =  0.700 |ddv_scf|^2 =  0.606E-08
 
     Pert. #  1: Fermi energy shift (Ry) =     0.2192E+49     0.1298E+34

      iter #   4 total cpu time :145708.5 secs   av.it.:  18.5
      thresh= 0.779E-05 alpha_mix =  0.700 |ddv_scf|^2 =  0.996E-09
 
     Pert. #  1: Fermi energy shift (Ry) =     0.2192E+49     0.3245E+33

      iter #   5 total cpu time :146595.4 secs   av.it.:  19.0
      thresh= 0.316E-05 alpha_mix =  0.700 |ddv_scf|^2 =  0.875E-10
 
     Pert. #  1: Fermi energy shift (Ry) =     0.9134E+47     0.6490E+33

      iter #   6 total cpu time :147507.1 secs   av.it.:  19.9
      thresh= 0.936E-06 alpha_mix =  0.700 |ddv_scf|^2 =  0.805E-11
 
     Pert. #  1: Fermi energy shift (Ry) =    -0.5709E+46    -0.1217E+33

      iter #   7 total cpu time :148448.7 secs   av.it.:  20.0
      thresh= 0.284E-06 alpha_mix =  0.700 |ddv_scf|^2 =  0.290E-11
 
     Pert. #  1: Fermi energy shift (Ry) =    -0.2284E+47    -0.1014E+32

      iter #   8 total cpu time :149346.0 secs   av.it.:  20.0
      thresh= 0.170E-06 alpha_mix =  0.700 |ddv_scf|^2 =  0.460E-12
 
     Pert. #  1: Fermi energy shift (Ry) =     0.8563E+46     0.2028E+32

      iter #   9 total cpu time :150266.5 secs   av.it.:  20.0
      thresh= 0.678E-07 alpha_mix =  0.700 |ddv_scf|^2 =  0.155E-12
 
     Pert. #  1: Fermi energy shift (Ry) =     0.2854E+46     0.2535E+31

      iter #  10 total cpu time :151202.8 secs   av.it.:  19.9
      thresh= 0.394E-07 alpha_mix =  0.700 |ddv_scf|^2 =  0.428E-13
 
     Pert. #  1: Fermi energy shift (Ry) =     0.2141E+46    -0.2535E+31

      iter #  11 total cpu time :152113.0 secs   av.it.:  19.5
      thresh= 0.207E-07 alpha_mix =  0.700 |ddv_scf|^2 =  0.215E-13
 
     Pert. #  1: Fermi energy shift (Ry) =     0.5709E+46    -0.1014E+32

      iter #  12 total cpu time :153064.2 secs   av.it.:  19.9
      thresh= 0.147E-07 alpha_mix =  0.700 |ddv_scf|^2 =  0.579E-14

     End of self-consistent calculation

     Convergence has been achieved 


     Representation #244 mode # 244

     Self-consistent Calculation
 
     Pert. #  1: Fermi energy shift (Ry) =     0.1169E+50     0.1329E+37

      iter #   1 total cpu time :155761.8 secs   av.it.:   5.0
      thresh= 0.100E-01 alpha_mix =  0.700 |ddv_scf|^2 =  0.697E-08
 
     Pert. #  1: Fermi energy shift (Ry) =     0.7308E+48    -0.2596E+34

      iter #   2 total cpu time :156707.7 secs   av.it.:  20.0
      thresh= 0.835E-05 alpha_mix =  0.700 |ddv_scf|^2 =  0.489E-08
 
     Pert. #  1: Fermi energy shift (Ry) =     0.7308E+48     0.2596E+34

      iter #   3 total cpu time :157649.8 secs   av.it.:  20.0
      thresh= 0.699E-05 alpha_mix =  0.700 |ddv_scf|^2 =  0.485E-08
 
     Pert. #  1: Fermi energy shift (Ry) =    -0.7308E+48    -0.5192E+34

      iter #   4 total cpu time :158547.4 secs   av.it.:  18.6
      thresh= 0.696E-05 alpha_mix =  0.700 |ddv_scf|^2 =  0.318E-09
 
     Pert. #  1: Fermi energy shift (Ry) =     0.4567E+47     0.6490E+33

      iter #   5 total cpu time :159450.7 secs   av.it.:  18.5
      thresh= 0.178E-05 alpha_mix =  0.700 |ddv_scf|^2 =  0.103E-09
 
     Pert. #  1: Fermi energy shift (Ry) =     0.2284E+47     0.3245E+33

      iter #   6 total cpu time :160347.9 secs   av.it.:  19.0
      thresh= 0.102E-05 alpha_mix =  0.700 |ddv_scf|^2 =  0.436E-11
 
     Pert. #  1: Fermi energy shift (Ry) =     0.2284E+47     0.4056E+32

      iter #   7 total cpu time :161309.6 secs   av.it.:  20.0
      thresh= 0.209E-06 alpha_mix =  0.700 |ddv_scf|^2 =  0.310E-11
 
     Pert. #  1: Fermi energy shift (Ry) =    -0.1142E+47     0.8113E+32

      iter #   8 total cpu time :162240.9 secs   av.it.:  19.8
      thresh= 0.176E-06 alpha_mix =  0.700 |ddv_scf|^2 =  0.301E-12
 
     Pert. #  1: Fermi energy shift (Ry) =     0.2284E+47     0.8113E+32

      iter #   9 total cpu time :163168.6 secs   av.it.:  20.0
      thresh= 0.548E-07 alpha_mix =  0.700 |ddv_scf|^2 =  0.123E-12
 
     Pert. #  1: Fermi energy shift (Ry) =     0.2284E+47     0.8113E+32

      iter #  10 total cpu time :164080.5 secs   av.it.:  19.2
      thresh= 0.350E-07 alpha_mix =  0.700 |ddv_scf|^2 =  0.309E-13
 
     Pert. #  1: Fermi energy shift (Ry) =     0.2284E+47     0.8113E+32

      iter #  11 total cpu time :165025.0 secs   av.it.:  19.6
      thresh= 0.176E-07 alpha_mix =  0.700 |ddv_scf|^2 =  0.264E-13
 
     Pert. #  1: Fermi energy shift (Ry) =     0.2284E+47     0.8113E+32

      iter #  12 total cpu time :165883.6 secs   av.it.:  18.9
      thresh= 0.163E-07 alpha_mix =  0.700 |ddv_scf|^2 =  0.169E-14

     End of self-consistent calculation

     Convergence has been achieved 


     Representation #245 mode # 245

     Self-consistent Calculation
 
     Pert. #  1: Fermi energy shift (Ry) =    -0.9354E+50    -0.8308E+35

      iter #   1 total cpu time :168655.3 secs   av.it.:   7.0
      thresh= 0.100E-01 alpha_mix =  0.700 |ddv_scf|^2 =  0.786E-07
 
     Pert. #  1: Fermi energy shift (Ry) =     0.7308E+48     0.3245E+33

      iter #   2 total cpu time :169604.1 secs   av.it.:  20.4
      thresh= 0.280E-04 alpha_mix =  0.700 |ddv_scf|^2 =  0.422E-06
 
     Pert. #  1: Fermi energy shift (Ry) =    -0.2923E+49    -0.2596E+34

      iter #   3 total cpu time :170459.2 secs   av.it.:  18.0
      thresh= 0.650E-04 alpha_mix =  0.700 |ddv_scf|^2 =  0.306E-07
 
     Pert. #  1: Fermi energy shift (Ry) =    -0.7308E+48     0.3245E+33

      iter #   4 total cpu time :171365.4 secs   av.it.:  18.0
      thresh= 0.175E-04 alpha_mix =  0.700 |ddv_scf|^2 =  0.205E-08
 
     Pert. #  1: Fermi energy shift (Ry) =    -0.1827E+48    -0.8113E+32

      iter #   5 total cpu time :172254.3 secs   av.it.:  19.0
      thresh= 0.453E-05 alpha_mix =  0.700 |ddv_scf|^2 =  0.168E-09
 
     Pert. #  1: Fermi energy shift (Ry) =     0.7308E+48    -0.5071E+31

      iter #   6 total cpu time :173181.5 secs   av.it.:  19.8
      thresh= 0.130E-05 alpha_mix =  0.700 |ddv_scf|^2 =  0.545E-10
 
     Pert. #  1: Fermi energy shift (Ry) =    -0.2284E+47     0.2028E+32

      iter #   7 total cpu time :174121.9 secs   av.it.:  19.0
      thresh= 0.738E-06 alpha_mix =  0.700 |ddv_scf|^2 =  0.236E-11
 
     Pert. #  1: Fermi energy shift (Ry) =     0.2854E+46     0.5071E+31

      iter #   8 total cpu time :175048.6 secs   av.it.:  20.0
      thresh= 0.154E-06 alpha_mix =  0.700 |ddv_scf|^2 =  0.768E-12
 
     Pert. #  1: Fermi energy shift (Ry) =     0.1142E+47     0.2535E+31

      iter #   9 total cpu time :175970.4 secs   av.it.:  19.6
      thresh= 0.876E-07 alpha_mix =  0.700 |ddv_scf|^2 =  0.248E-12
 
     Pert. #  1: Fermi energy shift (Ry) =     0.5709E+46     0.6338E+30

      iter #  10 total cpu time :176882.5 secs   av.it.:  19.0
      thresh= 0.498E-07 alpha_mix =  0.700 |ddv_scf|^2 =  0.990E-13
 
     Pert. #  1: Fermi energy shift (Ry) =     0.2284E+47     0.3169E+30

      iter #  11 total cpu time :177736.8 secs   av.it.:  18.0
      thresh= 0.315E-07 alpha_mix =  0.700 |ddv_scf|^2 =  0.423E-14

     End of self-consistent calculation

     Convergence has been achieved 


     Representation #246 mode # 246

     Self-consistent Calculation
 
     Pert. #  1: Fermi energy shift (Ry) =    -0.4677E+50     0.0000E+00

      iter #   1 total cpu time :180465.0 secs   av.it.:   6.0
      thresh= 0.100E-01 alpha_mix =  0.700 |ddv_scf|^2 =  0.140E-07
 
     Pert. #  1: Fermi energy shift (Ry) =    -0.3654E+48     0.0000E+00

      iter #   2 total cpu time :181432.7 secs   av.it.:  20.9
      thresh= 0.118E-04 alpha_mix =  0.700 |ddv_scf|^2 =  0.233E-07
 
     Pert. #  1: Fermi energy shift (Ry) =     0.1370E+48     0.0000E+00

      iter #   3 total cpu time :182357.3 secs   av.it.:  19.9
      thresh= 0.153E-04 alpha_mix =  0.700 |ddv_scf|^2 =  0.426E-08
 
     Pert. #  1: Fermi energy shift (Ry) =    -0.2923E+49     0.0000E+00

      iter #   4 total cpu time :183297.0 secs   av.it.:  20.0
      thresh= 0.652E-05 alpha_mix =  0.700 |ddv_scf|^2 =  0.270E-09
 
     Pert. #  1: Fermi energy shift (Ry) =    -0.2284E+48     0.0000E+00

      iter #   5 total cpu time :184216.6 secs   av.it.:  19.9
      thresh= 0.164E-05 alpha_mix =  0.700 |ddv_scf|^2 =  0.161E-09
 
     Pert. #  1: Fermi energy shift (Ry) =     0.4567E+47     0.0000E+00

      iter #   6 total cpu time :185079.8 secs   av.it.:  18.5
      thresh= 0.127E-05 alpha_mix =  0.700 |ddv_scf|^2 =  0.456E-11
 
     Pert. #  1: Fermi energy shift (Ry) =     0.3425E+47     0.0000E+00

      iter #   7 total cpu time :186009.6 secs   av.it.:  20.0
      thresh= 0.214E-06 alpha_mix =  0.700 |ddv_scf|^2 =  0.196E-11
 
     Pert. #  1: Fermi energy shift (Ry) =    -0.2676E+45     0.0000E+00

      iter #   8 total cpu time :186990.1 secs   av.it.:  20.0
      thresh= 0.140E-06 alpha_mix =  0.700 |ddv_scf|^2 =  0.875E-12
 
     Pert. #  1: Fermi energy shift (Ry) =     0.2284E+47     0.0000E+00

      iter #   9 total cpu time :187893.9 secs   av.it.:  19.0
      thresh= 0.935E-07 alpha_mix =  0.700 |ddv_scf|^2 =  0.511E-13
 
     Pert. #  1: Fermi energy shift (Ry) =     0.7136E+46     0.0000E+00

      iter #  10 total cpu time :188847.5 secs   av.it.:  20.1
      thresh= 0.226E-07 alpha_mix =  0.700 |ddv_scf|^2 =  0.857E-13
 
     Pert. #  1: Fermi energy shift (Ry) =     0.8563E+46     0.0000E+00

      iter #  11 total cpu time :189716.5 secs   av.it.:  18.5
      thresh= 0.293E-07 alpha_mix =  0.700 |ddv_scf|^2 =  0.102E-13
 
     Pert. #  1: Fermi energy shift (Ry) =     0.1142E+47     0.0000E+00

      iter #  12 total cpu time :190654.1 secs   av.it.:  20.0
      thresh= 0.101E-07 alpha_mix =  0.700 |ddv_scf|^2 =  0.343E-14

     End of self-consistent calculation

     Convergence has been achieved 


     Representation #247 mode # 247

     Self-consistent Calculation
 
     Pert. #  1: Fermi energy shift (Ry) =     0.1871E+51     0.1662E+36

      iter #   1 total cpu time :193418.3 secs   av.it.:   6.0
      thresh= 0.100E-01 alpha_mix =  0.700 |ddv_scf|^2 =  0.502E-07
 
     Pert. #  1: Fermi energy shift (Ry) =     0.7308E+48     0.6490E+33

      iter #   2 total cpu time :194437.2 secs   av.it.:  20.0
      thresh= 0.224E-04 alpha_mix =  0.700 |ddv_scf|^2 =  0.308E-06
 
     Pert. #  1: Fermi energy shift (Ry) =     0.1169E+50    -0.2596E+34

      iter #   3 total cpu time :195320.9 secs   av.it.:  18.0
      thresh= 0.555E-04 alpha_mix =  0.700 |ddv_scf|^2 =  0.111E-07
 
     Pert. #  1: Fermi energy shift (Ry) =    -0.1462E+49    -0.3245E+33

      iter #   4 total cpu time :196219.7 secs   av.it.:  19.0
      thresh= 0.105E-04 alpha_mix =  0.700 |ddv_scf|^2 =  0.109E-08
 
     Pert. #  1: Fermi energy shift (Ry) =    -0.9134E+47     0.1623E+33

      iter #   5 total cpu time :197170.4 secs   av.it.:  19.6
      thresh= 0.330E-05 alpha_mix =  0.700 |ddv_scf|^2 =  0.278E-09
 
     Pert. #  1: Fermi energy shift (Ry) =     0.9134E+47     0.1014E+32

      iter #   6 total cpu time :198058.2 secs   av.it.:  19.0
      thresh= 0.167E-05 alpha_mix =  0.700 |ddv_scf|^2 =  0.511E-11
 
     Pert. #  1: Fermi energy shift (Ry) =     0.2284E+47    -0.4056E+32

      iter #   7 total cpu time :199029.6 secs   av.it.:  20.2
      thresh= 0.226E-06 alpha_mix =  0.700 |ddv_scf|^2 =  0.484E-11
 
     Pert. #  1: Fermi energy shift (Ry) =     0.4567E+47    -0.2028E+32

      iter #   8 total cpu time :199910.7 secs   av.it.:  19.0
      thresh= 0.220E-06 alpha_mix =  0.700 |ddv_scf|^2 =  0.284E-12
 
     Pert. #  1: Fermi energy shift (Ry) =     0.1142E+47     0.2535E+31

      iter #   9 total cpu time :200814.7 secs   av.it.:  19.8
      thresh= 0.533E-07 alpha_mix =  0.700 |ddv_scf|^2 =  0.129E-12
 
     Pert. #  1: Fermi energy shift (Ry) =     0.2284E+47    -0.2535E+31

      iter #  10 total cpu time :201776.3 secs   av.it.:  20.0
      thresh= 0.359E-07 alpha_mix =  0.700 |ddv_scf|^2 =  0.704E-13
 
     Pert. #  1: Fermi energy shift (Ry) =     0.1142E+47     0.6338E+30

      iter #  11 total cpu time :202738.5 secs   av.it.:  20.0
      thresh= 0.265E-07 alpha_mix =  0.700 |ddv_scf|^2 =  0.634E-13
 
     Pert. #  1: Fermi energy shift (Ry) =     0.2284E+47     0.3961E+29

      iter #  12 total cpu time :203694.6 secs   av.it.:  19.6
      thresh= 0.252E-07 alpha_mix =  0.700 |ddv_scf|^2 =  0.992E-15

     End of self-consistent calculation

     Convergence has been achieved 


     Representation #248 mode # 248

     Self-consistent Calculation
 
     Pert. #  1: Fermi energy shift (Ry) =    -0.1871E+51    -0.4154E+35

      iter #   1 total cpu time :206449.6 secs   av.it.:   6.0
      thresh= 0.100E-01 alpha_mix =  0.700 |ddv_scf|^2 =  0.351E-07
 
     Pert. #  1: Fermi energy shift (Ry) =     0.7308E+48    -0.1623E+33

      iter #   2 total cpu time :207450.5 secs   av.it.:  20.9
      thresh= 0.187E-04 alpha_mix =  0.700 |ddv_scf|^2 =  0.135E-06
 
     Pert. #  1: Fermi energy shift (Ry) =    -0.3654E+48     0.1298E+34

      iter #   3 total cpu time :208338.3 secs   av.it.:  19.0
      thresh= 0.367E-04 alpha_mix =  0.700 |ddv_scf|^2 =  0.157E-07
 
     Pert. #  1: Fermi energy shift (Ry) =     0.1827E+48    -0.1268E+31

      iter #   4 total cpu time :209191.9 secs   av.it.:  18.6
      thresh= 0.125E-04 alpha_mix =  0.700 |ddv_scf|^2 =  0.215E-08
 
     Pert. #  1: Fermi energy shift (Ry) =     0.3654E+48     0.1623E+33

      iter #   5 total cpu time :210099.5 secs   av.it.:  18.1
      thresh= 0.463E-05 alpha_mix =  0.700 |ddv_scf|^2 =  0.258E-10
 
     Pert. #  1: Fermi energy shift (Ry) =     0.2284E+47     0.4056E+32

      iter #   6 total cpu time :211071.8 secs   av.it.:  20.9
      thresh= 0.508E-06 alpha_mix =  0.700 |ddv_scf|^2 =  0.252E-10
 
     Pert. #  1: Fermi energy shift (Ry) =     0.4567E+47     0.1014E+32

      iter #   7 total cpu time :211984.4 secs   av.it.:  19.4
      thresh= 0.502E-06 alpha_mix =  0.700 |ddv_scf|^2 =  0.469E-11
 
     Pert. #  1: Fermi energy shift (Ry) =     0.2854E+46     0.2028E+32

      iter #   8 total cpu time :212911.0 secs   av.it.:  19.0
      thresh= 0.216E-06 alpha_mix =  0.700 |ddv_scf|^2 =  0.225E-12
 
     Pert. #  1: Fermi energy shift (Ry) =    -0.2854E+46     0.1014E+32

      iter #   9 total cpu time :213891.9 secs   av.it.:  21.0
      thresh= 0.474E-07 alpha_mix =  0.700 |ddv_scf|^2 =  0.389E-12
 
     Pert. #  1: Fermi energy shift (Ry) =    -0.1427E+46     0.1014E+32

      iter #  10 total cpu time :214808.3 secs   av.it.:  19.0
      thresh= 0.623E-07 alpha_mix =  0.700 |ddv_scf|^2 =  0.453E-14

     End of self-consistent calculation

     Convergence has been achieved 


     Representation #249 mode # 249

     Self-consistent Calculation
 
     Pert. #  1: Fermi energy shift (Ry) =    -0.7483E+51     0.1329E+37

      iter #   1 total cpu time :217481.7 secs   av.it.:   5.0
      thresh= 0.100E-01 alpha_mix =  0.700 |ddv_scf|^2 =  0.835E-08
 
     Pert. #  1: Fermi energy shift (Ry) =     0.3654E+48     0.0000E+00

      iter #   2 total cpu time :218425.8 secs   av.it.:  20.0
      thresh= 0.914E-05 alpha_mix =  0.700 |ddv_scf|^2 =  0.966E-08
 
     Pert. #  1: Fermi energy shift (Ry) =     0.7308E+48     0.0000E+00

      iter #   3 total cpu time :219386.5 secs   av.it.:  20.0
      thresh= 0.983E-05 alpha_mix =  0.700 |ddv_scf|^2 =  0.435E-08
 
     Pert. #  1: Fermi energy shift (Ry) =    -0.2284E+47     0.0000E+00

      iter #   4 total cpu time :220256.8 secs   av.it.:  19.0
      thresh= 0.660E-05 alpha_mix =  0.700 |ddv_scf|^2 =  0.282E-09
 
     Pert. #  1: Fermi energy shift (Ry) =     0.2854E+46     0.0000E+00

      iter #   5 total cpu time :221138.3 secs   av.it.:  19.0
      thresh= 0.168E-05 alpha_mix =  0.700 |ddv_scf|^2 =  0.650E-10
 
     Pert. #  1: Fermi energy shift (Ry) =    -0.4567E+47     0.0000E+00

      iter #   6 total cpu time :222050.3 secs   av.it.:  20.0
      thresh= 0.806E-06 alpha_mix =  0.700 |ddv_scf|^2 =  0.106E-10
 
     Pert. #  1: Fermi energy shift (Ry) =     0.1827E+48     0.1014E+32

      iter #   7 total cpu time :222938.5 secs   av.it.:  19.0
      thresh= 0.325E-06 alpha_mix =  0.700 |ddv_scf|^2 =  0.798E-11
 
     Pert. #  1: Fermi energy shift (Ry) =     0.4567E+47     0.0000E+00

      iter #   8 total cpu time :223845.6 secs   av.it.:  19.0
      thresh= 0.282E-06 alpha_mix =  0.700 |ddv_scf|^2 =  0.448E-12
 
     Pert. #  1: Fermi energy shift (Ry) =     0.1142E+47     0.8113E+32

      iter #   9 total cpu time :224731.3 secs   av.it.:  20.0
      thresh= 0.669E-07 alpha_mix =  0.700 |ddv_scf|^2 =  0.876E-13
 
     Pert. #  1: Fermi energy shift (Ry) =     0.2284E+47     0.4056E+32

      iter #  10 total cpu time :225672.8 secs   av.it.:  20.0
      thresh= 0.296E-07 alpha_mix =  0.700 |ddv_scf|^2 =  0.723E-13
 
     Pert. #  1: Fermi energy shift (Ry) =     0.2284E+47     0.4056E+32

      iter #  11 total cpu time :226597.5 secs   av.it.:  20.0
      thresh= 0.269E-07 alpha_mix =  0.700 |ddv_scf|^2 =  0.324E-13
 
     Pert. #  1: Fermi energy shift (Ry) =     0.1142E+47     0.4056E+32

      iter #  12 total cpu time :227493.8 secs   av.it.:  19.0
      thresh= 0.180E-07 alpha_mix =  0.700 |ddv_scf|^2 =  0.465E-14

     End of self-consistent calculation

     Convergence has been achieved 


     Representation #250 mode # 250

     Self-consistent Calculation
 
     Pert. #  1: Fermi energy shift (Ry) =    -0.4677E+50     0.0000E+00

      iter #   1 total cpu time :230242.3 secs   av.it.:   5.9
      thresh= 0.100E-01 alpha_mix =  0.700 |ddv_scf|^2 =  0.139E-07
 
     Pert. #  1: Fermi energy shift (Ry) =     0.3654E+48     0.0000E+00

      iter #   2 total cpu time :231155.3 secs   av.it.:  20.5
      thresh= 0.118E-04 alpha_mix =  0.700 |ddv_scf|^2 =  0.587E-07
 
     Pert. #  1: Fermi energy shift (Ry) =     0.1462E+49     0.0000E+00

      iter #   3 total cpu time :231993.0 secs   av.it.:  18.4
      thresh= 0.242E-04 alpha_mix =  0.700 |ddv_scf|^2 =  0.636E-08
 
     Pert. #  1: Fermi energy shift (Ry) =    -0.3654E+48     0.0000E+00

      iter #   4 total cpu time :232870.2 secs   av.it.:  18.9
      thresh= 0.797E-05 alpha_mix =  0.700 |ddv_scf|^2 =  0.651E-09
 
     Pert. #  1: Fermi energy shift (Ry) =    -0.7308E+48     0.0000E+00

      iter #   5 total cpu time :233805.4 secs   av.it.:  19.0
      thresh= 0.255E-05 alpha_mix =  0.700 |ddv_scf|^2 =  0.116E-09
 
     Pert. #  1: Fermi energy shift (Ry) =    -0.4567E+47     0.0000E+00

      iter #   6 total cpu time :234736.7 secs   av.it.:  19.9
      thresh= 0.108E-05 alpha_mix =  0.700 |ddv_scf|^2 =  0.500E-11
 
     Pert. #  1: Fermi energy shift (Ry) =    -0.4567E+47     0.0000E+00

      iter #   7 total cpu time :235651.9 secs   av.it.:  20.0
      thresh= 0.223E-06 alpha_mix =  0.700 |ddv_scf|^2 =  0.145E-11
 
     Pert. #  1: Fermi energy shift (Ry) =    -0.1427E+46     0.0000E+00

      iter #   8 total cpu time :236540.7 secs   av.it.:  19.4
      thresh= 0.120E-06 alpha_mix =  0.700 |ddv_scf|^2 =  0.179E-12
 
     Pert. #  1: Fermi energy shift (Ry) =    -0.1142E+47     0.0000E+00

      iter #   9 total cpu time :237483.7 secs   av.it.:  19.0
      thresh= 0.423E-07 alpha_mix =  0.700 |ddv_scf|^2 =  0.397E-13
 
     Pert. #  1: Fermi energy shift (Ry) =    -0.5709E+46     0.0000E+00

      iter #  10 total cpu time :238430.2 secs   av.it.:  20.0
      thresh= 0.199E-07 alpha_mix =  0.700 |ddv_scf|^2 =  0.253E-13
 
     Pert. #  1: Fermi energy shift (Ry) =    -0.5709E+46     0.0000E+00

      iter #  11 total cpu time :239364.7 secs   av.it.:  20.0
      thresh= 0.159E-07 alpha_mix =  0.700 |ddv_scf|^2 =  0.101E-13
 
     Pert. #  1: Fermi energy shift (Ry) =    -0.5709E+46     0.0000E+00

      iter #  12 total cpu time :240302.6 secs   av.it.:  19.9
      thresh= 0.100E-07 alpha_mix =  0.700 |ddv_scf|^2 =  0.534E-14

     End of self-consistent calculation

     Convergence has been achieved 


     Representation #251 mode # 251

     Self-consistent Calculation
 
     Pert. #  1: Fermi energy shift (Ry) =     0.9354E+50     0.4154E+35

      iter #   1 total cpu time :243071.7 secs   av.it.:   6.0
      thresh= 0.100E-01 alpha_mix =  0.700 |ddv_scf|^2 =  0.148E-07
 
     Pert. #  1: Fermi energy shift (Ry) =    -0.3654E+48    -0.5192E+34

      iter #   2 total cpu time :244042.8 secs   av.it.:  20.9
      thresh= 0.121E-04 alpha_mix =  0.700 |ddv_scf|^2 =  0.482E-07
 
     Pert. #  1: Fermi energy shift (Ry) =    -0.1462E+49     0.2596E+34

      iter #   3 total cpu time :244968.3 secs   av.it.:  19.0
      thresh= 0.220E-04 alpha_mix =  0.700 |ddv_scf|^2 =  0.507E-08
 
     Pert. #  1: Fermi energy shift (Ry) =     0.9134E+47     0.1298E+34

      iter #   4 total cpu time :245844.8 secs   av.it.:  19.0
      thresh= 0.712E-05 alpha_mix =  0.700 |ddv_scf|^2 =  0.813E-09
 
     Pert. #  1: Fermi energy shift (Ry) =     0.3654E+48     0.1298E+34

      iter #   5 total cpu time :246773.5 secs   av.it.:  19.0
      thresh= 0.285E-05 alpha_mix =  0.700 |ddv_scf|^2 =  0.103E-09
 
     Pert. #  1: Fermi energy shift (Ry) =     0.3654E+48     0.6490E+33

      iter #   6 total cpu time :247712.4 secs   av.it.:  19.8
      thresh= 0.101E-05 alpha_mix =  0.700 |ddv_scf|^2 =  0.856E-11
 
     Pert. #  1: Fermi energy shift (Ry) =    -0.1142E+47    -0.4056E+32

      iter #   7 total cpu time :248669.7 secs   av.it.:  20.0
      thresh= 0.293E-06 alpha_mix =  0.700 |ddv_scf|^2 =  0.277E-11
 
     Pert. #  1: Fermi energy shift (Ry) =     0.5709E+46    -0.2028E+32

      iter #   8 total cpu time :249588.9 secs   av.it.:  20.0
      thresh= 0.166E-06 alpha_mix =  0.700 |ddv_scf|^2 =  0.283E-12
 
     Pert. #  1: Fermi energy shift (Ry) =     0.1427E+46     0.4056E+32

      iter #   9 total cpu time :250517.3 secs   av.it.:  20.0
      thresh= 0.532E-07 alpha_mix =  0.700 |ddv_scf|^2 =  0.207E-12
 
     Pert. #  1: Fermi energy shift (Ry) =    -0.7136E+45     0.2028E+32

      iter #  10 total cpu time :251430.5 secs   av.it.:  19.0
      thresh= 0.455E-07 alpha_mix =  0.700 |ddv_scf|^2 =  0.812E-13
 
     Pert. #  1: Fermi energy shift (Ry) =    -0.3568E+45     0.2028E+32

      iter #  11 total cpu time :252338.5 secs   av.it.:  18.0
      thresh= 0.285E-07 alpha_mix =  0.700 |ddv_scf|^2 =  0.117E-13
 
     Pert. #  1: Fermi energy shift (Ry) =     0.1427E+46     0.2028E+32

      iter #  12 total cpu time :253285.5 secs   av.it.:  20.0
      thresh= 0.108E-07 alpha_mix =  0.700 |ddv_scf|^2 =  0.333E-14

     End of self-consistent calculation

     Convergence has been achieved 


     Representation #252 mode # 252

     Self-consistent Calculation
 
     Pert. #  1: Fermi energy shift (Ry) =    -0.5846E+49     0.0000E+00

      iter #   1 total cpu time :255993.5 secs   av.it.:   5.5
      thresh= 0.100E-01 alpha_mix =  0.700 |ddv_scf|^2 =  0.891E-08
 
     Pert. #  1: Fermi energy shift (Ry) =    -0.3654E+48     0.0000E+00

      iter #   2 total cpu time :256898.1 secs   av.it.:  20.0
      thresh= 0.944E-05 alpha_mix =  0.700 |ddv_scf|^2 =  0.155E-07
 
     Pert. #  1: Fermi energy shift (Ry) =    -0.1462E+49     0.0000E+00

      iter #   3 total cpu time :257769.8 secs   av.it.:  19.0
      thresh= 0.125E-04 alpha_mix =  0.700 |ddv_scf|^2 =  0.637E-08
 
     Pert. #  1: Fermi energy shift (Ry) =     0.7308E+48     0.0000E+00

      iter #   4 total cpu time :258631.2 secs   av.it.:  18.8
      thresh= 0.798E-05 alpha_mix =  0.700 |ddv_scf|^2 =  0.492E-09
 
     Pert. #  1: Fermi energy shift (Ry) =     0.9134E+47     0.0000E+00

      iter #   5 total cpu time :259560.6 secs   av.it.:  19.0
      thresh= 0.222E-05 alpha_mix =  0.700 |ddv_scf|^2 =  0.980E-10
 
     Pert. #  1: Fermi energy shift (Ry) =    -0.1827E+48     0.0000E+00

      iter #   6 total cpu time :260491.2 secs   av.it.:  19.9
      thresh= 0.990E-06 alpha_mix =  0.700 |ddv_scf|^2 =  0.139E-10
 
     Pert. #  1: Fermi energy shift (Ry) =    -0.2284E+47     0.0000E+00

      iter #   7 total cpu time :261392.7 secs   av.it.:  19.0
      thresh= 0.372E-06 alpha_mix =  0.700 |ddv_scf|^2 =  0.316E-11
 
     Pert. #  1: Fermi energy shift (Ry) =    -0.1142E+47     0.0000E+00

      iter #   8 total cpu time :262313.5 secs   av.it.:  19.6
      thresh= 0.178E-06 alpha_mix =  0.700 |ddv_scf|^2 =  0.501E-12
 
     Pert. #  1: Fermi energy shift (Ry) =     0.2854E+46     0.0000E+00

      iter #   9 total cpu time :263197.8 secs   av.it.:  19.0
      thresh= 0.708E-07 alpha_mix =  0.700 |ddv_scf|^2 =  0.332E-13
 
     Pert. #  1: Fermi energy shift (Ry) =     0.2854E+46     0.0000E+00

      iter #  10 total cpu time :264117.7 secs   av.it.:  20.9
      thresh= 0.182E-07 alpha_mix =  0.700 |ddv_scf|^2 =  0.361E-13
 
     Pert. #  1: Fermi energy shift (Ry) =     0.5709E+46     0.0000E+00

      iter #  11 total cpu time :265052.6 secs   av.it.:  19.9
      thresh= 0.190E-07 alpha_mix =  0.700 |ddv_scf|^2 =  0.145E-13
 
[...]
     omega( 32 - 32) =       -849.3  [cm-1]   --> B_3u            I  
     omega( 33 - 33) =       -843.9  [cm-1]   --> B_2g            R  
     omega( 34 - 34) =       -839.6  [cm-1]   --> B_3g            R  
     omega( 35 - 35) =       -835.9  [cm-1]   --> A_u                
     omega( 36 - 36) =       -833.8  [cm-1]   --> B_2u            I  
     omega( 37 - 37) =       -831.6  [cm-1]   --> A_g             R  
     omega( 38 - 38) =       -830.2  [cm-1]   --> B_3u            I  
     omega( 39 - 39) =       -829.1  [cm-1]   --> B_3g            R  
     omega( 40 - 40) =       -828.3  [cm-1]   --> B_2g            R  
     omega( 41 - 41) =       -824.7  [cm-1]   --> A_u                
     omega( 42 - 42) =       -823.7  [cm-1]   --> B_3g            R  
     omega( 43 - 43) =       -823.3  [cm-1]   --> B_2u            I  
     omega( 44 - 44) =       -823.0  [cm-1]   --> B_3u            I  
     omega( 45 - 45) =       -821.0  [cm-1]   --> A_u                
     omega( 46 - 46) =       -818.6  [cm-1]   --> B_3u            I  
     omega( 47 - 47) =       -818.0  [cm-1]   --> A_u                
     omega( 48 - 48) =       -816.8  [cm-1]   --> B_2u            I  
     omega( 49 - 49) =       -816.7  [cm-1]   --> B_3u            I  
     omega( 50 - 50) =       -814.6  [cm-1]   --> B_3g            R  
     omega( 51 - 51) =       -812.4  [cm-1]   --> B_3g            R  
     omega( 52 - 52) =       -812.3  [cm-1]   --> B_3u            I  
     omega( 53 - 53) =       -809.1  [cm-1]   --> B_2u            I  
     omega( 54 - 54) =       -807.2  [cm-1]   --> A_u                
     omega( 55 - 55) =       -806.7  [cm-1]   --> B_3g            R  
     omega( 56 - 56) =       -804.2  [cm-1]   --> B_2u            I  
     omega( 57 - 57) =       -802.1  [cm-1]   --> A_g             R  
     omega( 58 - 58) =       -802.0  [cm-1]   --> B_3u            I  
     omega( 59 - 59) =       -801.7  [cm-1]   --> B_2u            I  
     omega( 60 - 60) =       -798.2  [cm-1]   --> B_3g            R  
     omega( 61 - 61) =       -795.3  [cm-1]   --> B_2u            I  
     omega( 62 - 62) =       -792.9  [cm-1]   --> A_u                
     omega( 63 - 63) =       -791.8  [cm-1]   --> B_3g            R  
     omega( 64 - 64) =       -786.2  [cm-1]   --> B_3g            R  
     omega( 65 - 65) =       -785.4  [cm-1]   --> B_3u            I  
     omega( 66 - 66) =       -782.1  [cm-1]   --> B_3g            R  
     omega( 67 - 67) =       -778.7  [cm-1]   --> A_u                
     omega( 68 - 68) =       -777.5  [cm-1]   --> A_u                
     omega( 69 - 69) =       -777.3  [cm-1]   --> B_2u            I  
     omega( 70 - 70) =       -773.5  [cm-1]   --> B_3u            I  
     omega( 71 - 71) =       -770.4  [cm-1]   --> B_3u            I  
     omega( 72 - 72) =       -767.7  [cm-1]   --> B_3g            R  
     omega( 73 - 73) =       -766.9  [cm-1]   --> B_3u            I  
     omega( 74 - 74) =       -766.3  [cm-1]   --> A_u                
     omega( 75 - 75) =       -748.9  [cm-1]   --> B_2u            I  
     omega( 76 - 76) =       -743.1  [cm-1]   --> B_2u            I  
     omega( 77 - 77) =       -720.7  [cm-1]   --> A_u                
     omega( 78 - 78) =       -715.3  [cm-1]   --> B_2u            I  
     omega( 79 - 79) =       -713.8  [cm-1]   --> B_3g            R  
     omega( 80 - 80) =       -701.6  [cm-1]   --> A_u                
     omega( 81 - 81) =       -690.9  [cm-1]   --> B_3g            R  
     omega( 82 - 82) =       -685.1  [cm-1]   --> B_3u            I  
     omega( 83 - 83) =       -677.9  [cm-1]   --> B_2u            I  
     omega( 84 - 84) =       -674.2  [cm-1]   --> A_u                
     omega( 85 - 85) =       -665.3  [cm-1]   --> B_3u            I  
     omega( 86 - 86) =       -656.4  [cm-1]   --> B_3g            R  
     omega( 87 - 87) =       -651.9  [cm-1]   --> B_3u            I  
     omega( 88 - 88) =       -648.0  [cm-1]   --> B_2u            I  
     omega( 89 - 89) =       -638.0  [cm-1]   --> B_3u            I  
     omega( 90 - 90) =       -634.7  [cm-1]   --> B_2u            I  
     omega( 91 - 91) =       -629.8  [cm-1]   --> A_u                
     omega( 92 - 92) =       -625.5  [cm-1]   --> A_u                
     omega( 93 - 93) =       -613.7  [cm-1]   --> B_3g            R  
     omega( 94 - 94) =       -610.7  [cm-1]   --> B_3u            I  
     omega( 95 - 95) =       -598.7  [cm-1]   --> B_3u            I  
     omega( 96 - 96) =       -588.8  [cm-1]   --> B_3g            R  
     omega( 97 - 97) =       -586.7  [cm-1]   --> A_u                
     omega( 98 - 98) =       -560.8  [cm-1]   --> B_3g            R  
     omega( 99 - 99) =       -263.0  [cm-1]   --> A_g             R  
     omega(100 -100) =       -224.6  [cm-1]   --> B_3g            R  
     omega(101 -101) =       -223.7  [cm-1]   --> B_3u            I  
     omega(102 -102) =       -216.8  [cm-1]   --> A_u                
     omega(103 -103) =       -216.6  [cm-1]   --> B_2u            I  
     omega(104 -104) =       -215.1  [cm-1]   --> B_3u            I  
     omega(105 -105) =       -208.7  [cm-1]   --> B_3u            I  
     omega(106 -106) =       -206.8  [cm-1]   --> B_3g            R  
     omega(107 -107) =       -205.8  [cm-1]   --> B_2u            I  
     omega(108 -108) =       -196.2  [cm-1]   --> A_u                
     omega(109 -109) =       -175.7  [cm-1]   --> B_3g            R  
     omega(110 -110) =       -143.8  [cm-1]   --> B_2u            I  
     omega(111 -111) =        -29.0  [cm-1]   --> B_1u            I  
     omega(112 -112) =         26.6  [cm-1]   --> B_1u            I  
     omega(113 -113) =         54.9  [cm-1]   --> B_1g            R  
     omega(114 -114) =         55.2  [cm-1]   --> B_2g            R  
     omega(115 -115) =         65.5  [cm-1]   --> B_1u            I  
     omega(116 -116) =         70.9  [cm-1]   --> B_1g            R  
     omega(117 -117) =         71.9  [cm-1]   --> A_g             R  
     omega(118 -118) =         82.0  [cm-1]   --> B_1g            R  
     omega(119 -119) =         86.0  [cm-1]   --> B_2g            R  
     omega(120 -120) =         86.6  [cm-1]   --> B_1g            R  
     omega(121 -121) =         90.1  [cm-1]   --> A_g             R  
     omega(122 -122) =         96.9  [cm-1]   --> B_1u            I  
     omega(123 -123) =         98.2  [cm-1]   --> B_2g            R  
     omega(124 -124) =        103.2  [cm-1]   --> B_1u            I  
     omega(125 -125) =        103.4  [cm-1]   --> B_1g            R  
     omega(126 -126) =        110.7  [cm-1]   --> B_1g            R  
     omega(127 -127) =        111.9  [cm-1]   --> A_g             R  
     omega(128 -128) =        115.5  [cm-1]   --> B_2g            R  
     omega(129 -129) =        115.6  [cm-1]   --> B_1g            R  
     omega(130 -130) =        118.7  [cm-1]   --> A_g             R  
     omega(131 -131) =        119.3  [cm-1]   --> B_1u            I  
     omega(132 -132) =        122.6  [cm-1]   --> B_1g            R  
     omega(133 -133) =        125.8  [cm-1]   --> A_g             R  
     omega(134 -134) =        130.1  [cm-1]   --> B_2g            R  
     omega(135 -135) =        130.7  [cm-1]   --> B_1u            I  
     omega(136 -136) =        130.8  [cm-1]   --> A_u                
     omega(137 -137) =        139.4  [cm-1]   --> B_1g            R  
     omega(138 -138) =        145.5  [cm-1]   --> B_1g            R  
     omega(139 -139) =        146.7  [cm-1]   --> B_1u            I  
     omega(140 -140) =        147.5  [cm-1]   --> B_2g            R  
     omega(141 -141) =        150.0  [cm-1]   --> A_g             R  
     omega(142 -142) =        150.9  [cm-1]   --> B_1u            I  
     omega(143 -143) =        152.6  [cm-1]   --> A_g             R  
     omega(144 -144) =        154.8  [cm-1]   --> B_2g            R  
     omega(145 -145) =        161.9  [cm-1]   --> B_1g            R  
     omega(146 -146) =        163.8  [cm-1]   --> B_1u            I  
     omega(147 -147) =        165.9  [cm-1]   --> A_g             R  
     omega(148 -148) =        178.8  [cm-1]   --> B_1u            I  
     omega(149 -149) =        182.1  [cm-1]   --> B_2g            R  
     omega(150 -150) =        183.0  [cm-1]   --> B_1g            R  
     omega(151 -151) =        185.5  [cm-1]   --> B_1u            I  
     omega(152 -152) =        198.8  [cm-1]   --> A_g             R  
     omega(153 -153) =        201.5  [cm-1]   --> B_1u            I  
     omega(154 -154) =        202.4  [cm-1]   --> B_2g            R  
     omega(155 -155) =        203.8  [cm-1]   --> B_1g            R  
     omega(156 -156) =        211.5  [cm-1]   --> B_1u            I  
     omega(157 -157) =        213.3  [cm-1]   --> A_g             R  
     omega(158 -158) =        221.4  [cm-1]   --> B_2g            R  
     omega(159 -159) =        231.3  [cm-1]   --> A_g             R  
     omega(160 -160) =        233.3  [cm-1]   --> B_2g            R  
     omega(161 -161) =        242.6  [cm-1]   --> B_1g            R  
     omega(162 -162) =        245.5  [cm-1]   --> B_1u            I  
     omega(163 -163) =        246.3  [cm-1]   --> A_g             R  
     omega(164 -164) =        250.3  [cm-1]   --> B_1g            R  
     omega(165 -165) =        254.9  [cm-1]   --> B_2g            R  
     omega(166 -166) =        267.1  [cm-1]   --> B_1g            R  
     omega(167 -167) =        268.5  [cm-1]   --> B_1u            I  
     omega(168 -168) =        280.0  [cm-1]   --> A_g             R  
     omega(169 -169) =        283.3  [cm-1]   --> B_2g            R  
     omega(170 -170) =        284.0  [cm-1]   --> B_1u            I  
     omega(171 -171) =        291.6  [cm-1]   --> B_1g            R  
     omega(172 -172) =        296.4  [cm-1]   --> B_2g            R  
     omega(173 -173) =        299.7  [cm-1]   --> B_2g            R  
     omega(174 -174) =        305.6  [cm-1]   --> B_1u            I  
     omega(175 -175) =        307.3  [cm-1]   --> B_1g            R  
     omega(176 -176) =        308.1  [cm-1]   --> B_1u            I  
     omega(177 -177) =        308.3  [cm-1]   --> A_g             R  
     omega(178 -178) =        313.7  [cm-1]   --> A_g             R  
     omega(179 -179) =        314.3  [cm-1]   --> B_2g            R  
     omega(180 -180) =        315.5  [cm-1]   --> B_1g            R  
     omega(181 -181) =        329.9  [cm-1]   --> B_1u            I  
     omega(182 -182) =        330.2  [cm-1]   --> A_g             R  
     omega(183 -183) =        334.4  [cm-1]   --> B_1g            R  
     omega(184 -184) =        342.6  [cm-1]   --> B_2g            R  
     omega(185 -185) =        345.8  [cm-1]   --> B_1u            I  
     omega(186 -186) =        347.6  [cm-1]   --> A_g             R  
     omega(187 -187) =        348.6  [cm-1]   --> B_1g            R  
     omega(188 -188) =        349.4  [cm-1]   --> B_2u            I  
     omega(189 -189) =        351.4  [cm-1]   --> A_g             R  
     omega(190 -190) =        353.1  [cm-1]   --> B_2g            R  
     omega(191 -191) =        353.4  [cm-1]   --> B_1u            I  
     omega(192 -192) =        355.6  [cm-1]   --> B_1g            R  
     omega(193 -193) =        358.4  [cm-1]   --> B_2g            R  
     omega(194 -194) =        359.7  [cm-1]   --> B_1u            I  
     omega(195 -195) =        360.1  [cm-1]   --> B_1g            R  
     omega(196 -196) =        373.2  [cm-1]   --> B_1u            I  
     omega(197 -197) =        375.4  [cm-1]   --> B_1g            R  
     omega(198 -198) =        378.7  [cm-1]   --> A_g             R  
     omega(199 -199) =        386.5  [cm-1]   --> B_1g            R  
     omega(200 -200) =        403.7  [cm-1]   --> B_1u            I  
     omega(201 -201) =        438.4  [cm-1]   --> B_2g            R  
     omega(202 -202) =        500.9  [cm-1]   --> A_u                
     omega(203 -203) =        549.3  [cm-1]   --> B_2u            I  
     omega(204 -204) =        578.1  [cm-1]   --> B_2u            I  
     omega(205 -205) =        586.0  [cm-1]   --> A_u                
     omega(206 -206) =        591.0  [cm-1]   --> B_2g            R  
     omega(207 -207) =        649.6  [cm-1]   --> A_g             R  
     omega(208 -208) =        711.8  [cm-1]   --> B_2g            R  
     omega(209 -209) =        749.4  [cm-1]   --> A_g             R  
     omega(210 -210) =        778.4  [cm-1]   --> B_1g            R  
     omega(211 -211) =        779.7  [cm-1]   --> A_g             R  
     omega(212 -212) =        791.4  [cm-1]   --> B_1u            I  
     omega(213 -213) =        791.8  [cm-1]   --> B_2g            R  
     omega(214 -214) =        792.5  [cm-1]   --> B_1u            I  
     omega(215 -215) =        800.9  [cm-1]   --> B_1g            R  
     omega(216 -216) =        801.6  [cm-1]   --> A_g             R  
     omega(217 -217) =        806.0  [cm-1]   --> B_1u            I  
     omega(218 -218) =        809.8  [cm-1]   --> B_2u            I  
     omega(219 -219) =        811.4  [cm-1]   --> B_1g            R  
     omega(220 -220) =        813.0  [cm-1]   --> B_1u            I  
     omega(221 -221) =        818.7  [cm-1]   --> A_g             R  
     omega(222 -222) =        820.1  [cm-1]   --> B_2g            R  
     omega(223 -223) =        828.3  [cm-1]   --> B_1g            R  
     omega(224 -225) =        833.1  [cm-1]   --> B_1g            R  
     omega(224 -225) =        833.1  [cm-1]   --> B_2g            R  
     omega(226 -226) =        835.5  [cm-1]   --> A_g             R  
     omega(227 -227) =        841.8  [cm-1]   --> B_1u            I  
     omega(228 -228) =        883.9  [cm-1]   --> B_2g            R  
     omega(229 -229) =        918.4  [cm-1]   --> B_1g            R  
     omega(230 -230) =        919.5  [cm-1]   --> A_g             R  
     omega(231 -231) =        921.6  [cm-1]   --> B_2g            R  
     omega(232 -232) =        923.3  [cm-1]   --> B_1u            I  
     omega(233 -233) =        934.7  [cm-1]   --> A_g             R  
     omega(234 -234) =        937.4  [cm-1]   --> B_1u            I  
     omega(235 -235) =        943.9  [cm-1]   --> B_1g            R  
     omega(236 -236) =        956.2  [cm-1]   --> B_1u            I  
     omega(237 -237) =        968.3  [cm-1]   --> B_1g            R  
     omega(238 -238) =        971.9  [cm-1]   --> B_2g            R  
     omega(239 -239) =       1536.0  [cm-1]   --> B_3g            R  
     omega(240 -240) =       1547.3  [cm-1]   --> B_2u            I  
     omega(241 -241) =       1558.6  [cm-1]   --> B_3u            I  
     omega(242 -242) =       1560.9  [cm-1]   --> B_2u            I  
     omega(243 -243) =       1561.6  [cm-1]   --> A_u                
     omega(244 -244) =       1562.3  [cm-1]   --> B_3g            R  
     omega(245 -245) =       1563.0  [cm-1]   --> A_u                
     omega(246 -246) =       1563.4  [cm-1]   --> B_3u            I  
     omega(247 -248) =       1567.4  [cm-1]   --> B_3g            R  
     omega(247 -248) =       1567.4  [cm-1]   --> B_2u            I  
     omega(249 -249) =       1568.2  [cm-1]   --> A_u                
     omega(250 -250) =       1572.2  [cm-1]   --> A_g             R  
     omega(251 -251) =       1572.6  [cm-1]   --> B_3g            R  
     omega(252 -252) =       1572.9  [cm-1]   --> B_3u            I  
     omega(253 -253) =       1573.1  [cm-1]   --> B_2u            I  
     omega(254 -254) =       1574.9  [cm-1]   --> B_3g            R  
     omega(255 -255) =       1575.8  [cm-1]   --> B_2u            I  
     omega(256 -256) =       1577.2  [cm-1]   --> B_3u            I  
     omega(257 -257) =       1578.1  [cm-1]   --> A_u                
     omega(258 -258) =       1578.4  [cm-1]   --> B_3u            I  
     omega(259 -260) =       1579.4  [cm-1]   --> B_2g            R  
     omega(259 -260) =       1579.4  [cm-1]   --> A_u                
     omega(261 -261) =       1582.0  [cm-1]   --> B_2u            I  
     omega(262 -262) =       1588.1  [cm-1]   --> B_3g            R  
     omega(263 -263) =       1593.8  [cm-1]   --> B_3u            I  
     omega(264 -264) =       1596.1  [cm-1]   --> A_u                

 **************************************************************************
 
     PHONON       :     4d   13h38m CPU        4d   20h 6m WALL

     INITIALIZATION: 
     phq_setup    :      2.58s CPU      4.32s WALL (       1 calls)
     phq_init     :     39.36s CPU     43.11s WALL (       1 calls)
 
     phq_init     :     39.36s CPU     43.11s WALL (       1 calls)
     set_drhoc    :      0.69s CPU      0.70s WALL (       1 calls)
     init_vloc    :      0.18s CPU      0.18s WALL (       1 calls)
     init_us_1    :      0.58s CPU      1.12s WALL (       1 calls)
     newd         :      2.20s CPU      2.25s WALL (       1 calls)
 
     DYNAMICAL MATRIX:
     phqscf       : 394087.81s CPU 417181.87s WALL (       1 calls)
     dynmatrix    :     70.40s CPU     73.59s WALL (       1 calls)
 
     phqscf       : 394087.81s CPU 417181.87s WALL (       1 calls)
     solve_linter : 392748.75s CPU 414502.04s WALL (      33 calls)
     drhodv       :   1316.79s CPU   1352.56s WALL (      33 calls)
 
 
 
     phqscf       : 394087.81s CPU 417181.87s WALL (       1 calls)
     solve_linter : 392748.75s CPU 414502.04s WALL (      33 calls)
 
     solve_linter : 392748.75s CPU 414502.04s WALL (      33 calls)
     dvqpsi_us    :  52811.75s CPU  52948.62s WALL (     264 calls)
     ortho        :  30302.65s CPU  30430.95s WALL (    3104 calls)
     cgsolve      : 282721.22s CPU 288547.79s WALL (    3104 calls)
     incdrhoscf   :   8188.55s CPU   8418.86s WALL (    3104 calls)
     addusddens   :    696.67s CPU    701.69s WALL (     388 calls)
     vpsifft      :   4639.24s CPU   4787.24s WALL (    2840 calls)
     dv_of_drho   :    119.41s CPU    126.04s WALL (     388 calls)
     mix_pot      :     43.80s CPU    145.86s WALL (     388 calls)
     ef_shift     :     11.04s CPU     89.84s WALL (     421 calls)
     localdos     :    931.55s CPU    967.42s WALL (      33 calls)
     psymdvscf    :    873.89s CPU    908.39s WALL (     388 calls)
     newdq        :    695.15s CPU    700.54s WALL (     388 calls)
     adddvscf     :   7258.95s CPU   7292.92s WALL (    2840 calls)
     drhodvus     :     33.87s CPU     96.90s WALL (      33 calls)
 
     dvqpsi_us    :  52811.75s CPU  52948.62s WALL (     264 calls)
     dvqpsi_us_on :  51938.66s CPU  52042.53s WALL (     264 calls)
 
     cgsolve      : 282721.22s CPU 288547.79s WALL (    3104 calls)
     ch_psi       : 272405.92s CPU 278168.22s WALL (   90778 calls)
 
     ch_psi       : 272405.92s CPU 278168.22s WALL (   90778 calls)
     h_psiq       : 179203.46s CPU 183951.64s WALL (   90778 calls)
     last         :  93161.99s CPU  93857.69s WALL (   90778 calls)
 
     h_psiq       : 179203.46s CPU 183951.64s WALL (   90778 calls)
     firstfft     :  52024.62s CPU  54212.90s WALL (20590940 calls)
     secondfft    :  49533.20s CPU  51479.47s WALL (20590940 calls)
     add_vuspsi   :  16557.21s CPU  16975.20s WALL (   90778 calls)
 
     incdrhoscf   :   8188.55s CPU   8418.86s WALL (    3104 calls)
     addusdbec    :   2937.71s CPU   2973.24s WALL (    3104 calls)
 
     drhodvus     :     33.87s CPU     96.90s WALL (      33 calls)
 
      General routines
     calbec       :  95429.58s CPU  95675.14s WALL (  189116 calls)
     fft          :    519.91s CPU    536.27s WALL (   16075 calls)
     ffts         :    391.11s CPU    412.39s WALL (  102714 calls)
     fftw         : 108110.57s CPU 112859.02s WALL (45738168 calls)
     cinterpolate :    276.37s CPU    279.20s WALL (     809 calls)
     davcio       :      3.17s CPU   1074.14s WALL (   26122 calls)
     write_rec    :    278.81s CPU  15609.03s WALL (     421 calls)
 
