
     Program PHONON v.4.3.2     starts on  9Oct2013 at 15:17:41 

     This program is part of the open-source Quantum ESPRESSO suite
     for quantum simulation of materials; please cite
         "P. Giannozzi et al., J. Phys.:Condens. Matter 21 395502 (2009);
          URL http://www.quantum-espresso.org", 
     in publications or presentations arising from this work. More details at
     http://www.quantum-espresso.org/wiki/index.php/Citing_Quantum-ESPRESSO

     Parallel version (MPI), running on   128 processors
     R & G space division:  proc/pool =  128

     Ultrasoft (Vanderbilt) Pseudopotentials

   Info: using nr1, nr2, nr3 values from input

   Info: using nr1s, nr2s, nr3s values from input
 
     Parallelization info
     --------------------
     sticks:   dense  smooth     PW     G-vecs:    dense   smooth      PW
     Min          26      26      7                 1804     1804     246
     Max          27      27      8                 1810     1810     257
     Sum        3349    3349    905               231267   231267   32145
 

     Check: negative/imaginary core charge=   -0.000002    0.000000

     negative rho (up, down):  0.161E-01 0.000E+00


     Dynamical matrices for ( 1, 1, 1,)  uniform grid of q-points
     (   1q-points):
       N         xq(1)         xq(2)         xq(3) 
       1   0.000000000   0.000000000   0.000000000

     Calculation of q =    0.0000000   0.0000000   0.0000000

                                                                                

     bravais-lattice index     =            0
     lattice parameter (alat)  =       1.8897  a.u.
     unit-cell volume          =    4843.3412 (a.u.)^3
     number of atoms/cell      =           44
     number of atomic types    =            3
     kinetic-energy cut-off    =      50.0000  Ry
     charge density cut-off    =     200.0000  Ry
     convergence threshold     =      1.0E-14
     beta                      =       0.7000
     number of iterations used =            4
     Exchange-correlation      = PBESOL ( 1 410 8 0)
     EXX-fraction              =        0.00


     celldm(1)=    1.88973  celldm(2)=    0.00000  celldm(3)=    0.00000
     celldm(4)=    0.00000  celldm(5)=    0.00000  celldm(6)=    0.00000

     crystal axes: (cart. coord. in units of alat)
               a(1) = (  6.0273  0.0000  0.0000 )  
               a(2) = (  0.0000  9.7865  0.0000 )  
               a(3) = ( -1.6342  0.0000 12.1674 )  

     reciprocal axes: (cart. coord. in units 2 pi/alat)
               b(1) = (  0.1659  0.0000  0.0223 )  
               b(2) = (  0.0000  0.1022  0.0000 )  
               b(3) = (  0.0000  0.0000  0.0822 )  


     Atoms inside the unit cell: 

   Cartesian axes

     site n.  atom      mass           positions (alat units)
        1        Th 232.0381   tau( 1) = (    0.54644    2.47716    4.50078  )
        2        Th 232.0381   tau( 2) = (    1.65012    7.37040    1.58294  )
        3        Th 232.0381   tau( 3) = (    3.84668    7.30933    7.66666  )
        4        Th 232.0381   tau( 4) = (    2.74300    2.41608   10.58450  )
        5        Mo  95.9600   tau( 5) = (    1.35435    3.41325    0.97647  )
        6        Mo  95.9600   tau( 6) = (    0.84221    8.30649    5.10725  )
        7        Mo  95.9600   tau( 7) = (    3.03877    6.37324   11.19097  )
        8        Mo  95.9600   tau( 8) = (    3.55091    1.47999    7.06019  )
        9        Mo  95.9600   tau( 9) = (    4.47822    0.21987    1.88118  )
       10        Mo  95.9600   tau(10) = (    3.74566    5.11312    4.20253  )
       11        Mo  95.9600   tau(11) = (   -0.08510    9.56661   10.28625  )
       12        Mo  95.9600   tau(12) = (    0.64746    4.67337    7.96490  )
       13        O   15.9994   tau(13) = (    4.83222    1.46578    3.07034  )
       14        O   15.9994   tau(14) = (    3.39166    6.35902    3.01338  )
       15        O   15.9994   tau(15) = (   -0.43909    8.32071    9.09710  )
       16        O   15.9994   tau(16) = (    1.00146    3.42746    9.15406  )
       17        O   15.9994   tau(17) = (    4.19613    0.93103    0.29563  )
       18        O   15.9994   tau(18) = (    4.02775    5.82427    5.78809  )
       19        O   15.9994   tau(19) = (    0.19699    8.85546   11.87181  )
       20        O   15.9994   tau(20) = (    0.36537    3.96222    6.37934  )
       21        O   15.9994   tau(21) = (   -0.19261    8.87872    1.75935  )
       22        O   15.9994   tau(22) = (    2.38917    3.98547    4.32437  )
       23        O   15.9994   tau(23) = (    4.58573    0.90777   10.40809  )
       24        O   15.9994   tau(24) = (    2.00395    5.80101    7.84307  )
       25        O   15.9994   tau(25) = (    1.45767    2.23775    2.29773  )
       26        O   15.9994   tau(26) = (    0.73889    7.13099    3.78599  )
       27        O   15.9994   tau(27) = (    2.93546    7.54874    9.86970  )
       28        O   15.9994   tau(28) = (    3.65423    2.65550    8.38145  )
       29        O   15.9994   tau(29) = (    3.03453    9.07880    2.35997  )
       30        O   15.9994   tau(30) = (    5.18935    4.18556    3.72375  )
       31        O   15.9994   tau(31) = (    1.35859    0.70768    9.80747  )
       32        O   15.9994   tau(32) = (   -0.79623    5.60093    8.44369  )
       33        O   15.9994   tau(33) = (    5.88544    3.15139    0.08975  )
       34        O   15.9994   tau(34) = (    2.33844    8.04463    5.99397  )
       35        O   15.9994   tau(35) = (   -1.49231    6.63509   12.07768  )
       36        O   15.9994   tau(36) = (    2.05468    1.74185    6.17347  )
       37        O   15.9994   tau(37) = (    2.72512    3.22385   -0.11677  )
       38        O   15.9994   tau(38) = (   -0.52855    8.11710    6.20049  )
       39        O   15.9994   tau(39) = (    1.66801    6.56263   12.28421  )
       40        O   15.9994   tau(40) = (    4.92168    1.66939    5.96695  )
       41        O   15.9994   tau(41) = (    1.33823    5.01940    1.68662  )
       42        O   15.9994   tau(42) = (    0.85833    9.91264    4.39710  )
       43        O   15.9994   tau(43) = (    3.05489    4.76709   10.48082  )
       44        O   15.9994   tau(44) = (    3.53479   -0.12615    7.77034  )

     Computing dynamical matrix for 
                    q = (   0.0000000   0.0000000   0.0000000 )
 
      5 Sym.Ops. (with q -> -q+G )


     G cutoff =   18.0912  (   1806 G-vectors)     FFT grid: ( 54, 90,108)

     number of k points=     4  Methfessel-Paxton smearing, width (Ry)=  0.0001

     PseudoPot. # 1 for Th read from file:
     ./3x2x1.save/Th.uspp.pbe.UPF
     MD5 check sum: c61255c1cd298da3ee729aeea206c4ba
     Pseudo is Ultrasoft + core correction, Zval = 12.0
     Generated by new atomic code, or converted to UPF format
     Using radial grid of  783 points,  6 beta functions with: 
                l(1) =   0
                l(2) =   0
                l(3) =   1
                l(4) =   1
                l(5) =   3
                l(6) =   3
     Q(r) pseudized with  8 coefficients,  rinner =    1.400   1.400   1.400
                                                       1.400   1.400   1.400
                                                       1.400

     PseudoPot. # 2 for Mo read from file:
     ./3x2x1.save/Mo.uspp.pbe.UPF
     MD5 check sum: ebbb4cc6f20032dd16a6e5518f6ad3a2
     Pseudo is Ultrasoft + core correction, Zval = 14.0
     Generated by new atomic code, or converted to UPF format
     Using radial grid of  889 points,  6 beta functions with: 
                l(1) =   0
                l(2) =   0
                l(3) =   1
                l(4) =   1
                l(5) =   2
                l(6) =   2
     Q(r) pseudized with  6 coefficients,  rinner =    1.000   1.000   1.000
                                                       1.000   1.000

     PseudoPot. # 3 for ox read from file:
     ./3x2x1.save/O.uspp.pbe.UPF
     MD5 check sum: bc035ce127357c107da78e4640aecd7f
     Pseudo is Ultrasoft, Zval =  6.0
     Generated by new atomic code, or converted to UPF format
     Using radial grid of  737 points,  4 beta functions with: 
                l(1) =   0
                l(2) =   0
                l(3) =   1
                l(4) =   1
     Q(r) pseudized with  8 coefficients,  rinner =    0.700   0.700   0.700



     Atomic displacements:
     There are 131 irreducible representations

     Representation     1      1 modes -A_g To be done

     Representation     2      1 modes -A_g To be done

     Representation     3      1 modes -A_g To be done

     Representation     4      1 modes -A_g To be done

     Representation     5      1 modes -A_g To be done

     Representation     6      1 modes -A_g To be done

     Representation     7      1 modes -A_g To be done

     Representation     8      1 modes -A_g To be done

     Representation     9      1 modes -A_g To be done

     Representation    10      1 modes -A_g To be done

     Representation    11      1 modes -A_g To be done

     Representation    12      1 modes -A_g To be done

     Representation    13      1 modes -A_g To be done

     Representation    14      1 modes -A_g To be done

     Representation    15      1 modes -A_g To be done

     Representation    16      1 modes -A_g To be done

     Representation    17      1 modes -A_g To be done

     Representation    18      1 modes -A_g To be done

     Representation    19      1 modes -A_g To be done

     Representation    20      1 modes -A_g To be done

     Representation    21      1 modes -A_g To be done

     Representation    22      1 modes -A_g To be done

     Representation    23      1 modes -A_g To be done

     Representation    24      1 modes -A_g To be done

     Representation    25      1 modes -A_g To be done

     Representation    26      1 modes -A_g To be done

     Representation    27      1 modes -A_g To be done

     Representation    28      1 modes -A_g To be done

     Representation    29      1 modes -A_g To be done

     Representation    30      1 modes -A_g To be done

     Representation    31      1 modes -A_g To be done

     Representation    32      1 modes -A_g To be done

     Representation    33      2 modes -A_g To be done

     Representation    34      1 modes -B_g To be done

     Representation    35      1 modes -B_g To be done

     Representation    36      1 modes -B_g To be done

     Representation    37      1 modes -B_g To be done

     Representation    38      1 modes -B_g To be done

     Representation    39      1 modes -B_g To be done

     Representation    40      1 modes -B_g To be done

     Representation    41      1 modes -B_g To be done

     Representation    42      1 modes -B_g To be done

     Representation    43      1 modes -B_g To be done

     Representation    44      1 modes -B_g To be done

     Representation    45      1 modes -B_g To be done

     Representation    46      1 modes -B_g To be done

     Representation    47      1 modes -B_g To be done

     Representation    48      1 modes -B_g To be done

     Representation    49      1 modes -B_g To be done

     Representation    50      1 modes -B_g To be done

     Representation    51      1 modes -B_g To be done

     Representation    52      1 modes -B_g To be done

     Representation    53      1 modes -B_g To be done

     Representation    54      1 modes -B_g To be done

     Representation    55      1 modes -B_g To be done

     Representation    56      1 modes -B_g To be done

     Representation    57      1 modes -B_g To be done

     Representation    58      1 modes -B_g To be done

     Representation    59      1 modes -B_g To be done

     Representation    60      1 modes -B_g To be done

     Representation    61      1 modes -B_g To be done

     Representation    62      1 modes -B_g To be done

     Representation    63      1 modes -B_g To be done

     Representation    64      1 modes -B_g To be done

     Representation    65      1 modes -B_g To be done

     Representation    66      1 modes -A_u To be done

     Representation    67      1 modes -A_u To be done

     Representation    68      1 modes -A_u To be done

     Representation    69      1 modes -A_u To be done

     Representation    70      1 modes -A_u To be done

     Representation    71      1 modes -A_u To be done

     Representation    72      1 modes -A_u To be done

     Representation    73      1 modes -A_u To be done

     Representation    74      1 modes -A_u To be done

     Representation    75      1 modes -A_u To be done

     Representation    76      1 modes -A_u To be done

     Representation    77      1 modes -A_u To be done

     Representation    78      1 modes -A_u To be done

     Representation    79      1 modes -A_u To be done

     Representation    80      1 modes -A_u To be done

     Representation    81      1 modes -A_u To be done

     Representation    82      1 modes -A_u To be done

     Representation    83      1 modes -A_u To be done

     Representation    84      1 modes -A_u To be done

     Representation    85      1 modes -A_u To be done

     Representation    86      1 modes -A_u To be done

     Representation    87      1 modes -A_u To be done

     Representation    88      1 modes -A_u To be done

     Representation    89      1 modes -A_u To be done

     Representation    90      1 modes -A_u To be done

     Representation    91      1 modes -A_u To be done

     Representation    92      1 modes -A_u To be done

     Representation    93      1 modes -A_u To be done

     Representation    94      1 modes -A_u To be done

     Representation    95      1 modes -A_u To be done

     Representation    96      1 modes -A_u To be done

     Representation    97      1 modes -A_u To be done

     Representation    98      1 modes -A_u To be done

     Representation    99      1 modes -B_u To be done

     Representation   100      1 modes -B_u To be done

     Representation   101      1 modes -B_u To be done

     Representation   102      1 modes -B_u To be done

     Representation   103      1 modes -B_u To be done

     Representation   104      1 modes -B_u To be done

     Representation   105      1 modes -B_u To be done

     Representation   106      1 modes -B_u To be done

     Representation   107      1 modes -B_u To be done

     Representation   108      1 modes -B_u To be done

     Representation   109      1 modes -B_u To be done

     Representation   110      1 modes -B_u To be done

     Representation   111      1 modes -B_u To be done

     Representation   112      1 modes -B_u To be done

     Representation   113      1 modes -B_u To be done

     Representation   114      1 modes -B_u To be done

     Representation   115      1 modes -B_u To be done

     Representation   116      1 modes -B_u To be done

     Representation   117      1 modes -B_u To be done

     Representation   118      1 modes -B_u To be done

     Representation   119      1 modes -B_u To be done

     Representation   120      1 modes -B_u To be done

     Representation   121      1 modes -B_u To be done

     Representation   122      1 modes -B_u To be done

     Representation   123      1 modes -B_u To be done

     Representation   124      1 modes -B_u To be done

     Representation   125      1 modes -B_u To be done

     Representation   126      1 modes -B_u To be done

     Representation   127      1 modes -B_u To be done

     Representation   128      1 modes -B_u To be done

     Representation   129      1 modes -B_u To be done

     Representation   130      1 modes -B_g To be done

     Representation   131      1 modes -B_u To be done



     Alpha used in Ewald sum =   1.6000

     negative rho (up, down):  0.161E-01 0.000E+00
     PHONON       : 11m49.75s CPU    12m16.66s WALL



     Representation #  1 mode #   1

     Self-consistent Calculation
 
     Pert. #  1: Fermi energy shift (Ry) =     0.1003E+70     0.1871E+51

      iter #   1 total cpu time :   925.9 secs   av.it.:   6.0
      thresh= 0.100E-01 alpha_mix =  0.700 |ddv_scf|^2 =  0.132E-06
 
     Pert. #  1: Fermi energy shift (Ry) =    -0.1100E+69    -0.9134E+47

      iter #   2 total cpu time :  1078.5 secs   av.it.:  19.2
      thresh= 0.364E-04 alpha_mix =  0.700 |ddv_scf|^2 =  0.405E-06
 
     Pert. #  1: Fermi energy shift (Ry) =     0.1401E+68    -0.3654E+48

      iter #   3 total cpu time :  1208.2 secs   av.it.:  17.8
      thresh= 0.636E-04 alpha_mix =  0.700 |ddv_scf|^2 =  0.272E-07
 
     Pert. #  1: Fermi energy shift (Ry) =    -0.7509E+67    -0.9134E+47

      iter #   4 total cpu time :  1353.0 secs   av.it.:  18.2
      thresh= 0.165E-04 alpha_mix =  0.700 |ddv_scf|^2 =  0.161E-08
 
     Pert. #  1: Fermi energy shift (Ry) =     0.4973E+67    -0.1827E+48

      iter #   5 total cpu time :  1497.8 secs   av.it.:  18.2
      thresh= 0.402E-05 alpha_mix =  0.700 |ddv_scf|^2 =  0.330E-09
 
     Pert. #  1: Fermi energy shift (Ry) =     0.4695E+67    -0.3654E+48

      iter #   6 total cpu time :  1637.4 secs   av.it.:  18.0
      thresh= 0.182E-05 alpha_mix =  0.700 |ddv_scf|^2 =  0.341E-10
 
     Pert. #  1: Fermi energy shift (Ry) =     0.4021E+67    -0.1827E+48

      iter #   7 total cpu time :  1773.1 secs   av.it.:  18.0
      thresh= 0.584E-06 alpha_mix =  0.700 |ddv_scf|^2 =  0.274E-11
 
     Pert. #  1: Fermi energy shift (Ry) =     0.3864E+67    -0.1827E+48

      iter #   8 total cpu time :  1914.4 secs   av.it.:  19.0
      thresh= 0.166E-06 alpha_mix =  0.700 |ddv_scf|^2 =  0.223E-11
 
     Pert. #  1: Fermi energy shift (Ry) =     0.3862E+67    -0.1827E+48

      iter #   9 total cpu time :  2049.5 secs   av.it.:  17.8
      thresh= 0.149E-06 alpha_mix =  0.700 |ddv_scf|^2 =  0.653E-13
 
     Pert. #  1: Fermi energy shift (Ry) =     0.4001E+67    -0.1827E+48

      iter #  10 total cpu time :  2194.3 secs   av.it.:  19.0
      thresh= 0.256E-07 alpha_mix =  0.700 |ddv_scf|^2 =  0.126E-12
 
     Pert. #  1: Fermi energy shift (Ry) =     0.3879E+67    -0.1827E+48

      iter #  11 total cpu time :  2331.5 secs   av.it.:  18.0
      thresh= 0.355E-07 alpha_mix =  0.700 |ddv_scf|^2 =  0.313E-13
 
     Pert. #  1: Fermi energy shift (Ry) =     0.3889E+67    -0.1827E+48

      iter #  12 total cpu time :  2471.5 secs   av.it.:  18.0
      thresh= 0.177E-07 alpha_mix =  0.700 |ddv_scf|^2 =  0.132E-13
 
     Pert. #  1: Fermi energy shift (Ry) =     0.3889E+67    -0.1827E+48

      iter #  13 total cpu time :  2613.8 secs   av.it.:  18.0
      thresh= 0.115E-07 alpha_mix =  0.700 |ddv_scf|^2 =  0.261E-14

     End of self-consistent calculation

     Convergence has been achieved 


     Representation #  2 mode #   2

     Self-consistent Calculation
 
     Pert. #  1: Fermi energy shift (Ry) =     0.5906E+69    -0.3741E+51

      iter #   1 total cpu time :  2833.6 secs   av.it.:   6.8
      thresh= 0.100E-01 alpha_mix =  0.700 |ddv_scf|^2 =  0.212E-06
 
     Pert. #  1: Fermi energy shift (Ry) =     0.3235E+68     0.1096E+49

      iter #   2 total cpu time :  2974.9 secs   av.it.:  19.0
      thresh= 0.460E-04 alpha_mix =  0.700 |ddv_scf|^2 =  0.910E-06
 
     Pert. #  1: Fermi energy shift (Ry) =    -0.1218E+67    -0.8769E+49

      iter #   3 total cpu time :  3103.8 secs   av.it.:  17.0
      thresh= 0.954E-04 alpha_mix =  0.700 |ddv_scf|^2 =  0.389E-07
 
     Pert. #  1: Fermi energy shift (Ry) =     0.9714E+67    -0.6851E+47

      iter #   4 total cpu time :  3238.2 secs   av.it.:  17.0
      thresh= 0.197E-04 alpha_mix =  0.700 |ddv_scf|^2 =  0.269E-08
 
     Pert. #  1: Fermi energy shift (Ry) =     0.1054E+68     0.7308E+48

      iter #   5 total cpu time :  3370.1 secs   av.it.:  17.2
      thresh= 0.519E-05 alpha_mix =  0.700 |ddv_scf|^2 =  0.969E-10
 
     Pert. #  1: Fermi energy shift (Ry) =     0.1147E+68     0.1827E+48

      iter #   6 total cpu time :  3509.6 secs   av.it.:  18.0
      thresh= 0.984E-06 alpha_mix =  0.700 |ddv_scf|^2 =  0.321E-10
 
     Pert. #  1: Fermi energy shift (Ry) =     0.9859E+67     0.1827E+48

      iter #   7 total cpu time :  3650.5 secs   av.it.:  18.0
      thresh= 0.567E-06 alpha_mix =  0.700 |ddv_scf|^2 =  0.758E-11
 
     Pert. #  1: Fermi energy shift (Ry) =     0.1081E+68     0.1827E+48

      iter #   8 total cpu time :  3802.0 secs   av.it.:  18.2
      thresh= 0.275E-06 alpha_mix =  0.700 |ddv_scf|^2 =  0.144E-11
 
     Pert. #  1: Fermi energy shift (Ry) =     0.1048E+68     0.1827E+48

      iter #   9 total cpu time :  3947.1 secs   av.it.:  18.0
      thresh= 0.120E-06 alpha_mix =  0.700 |ddv_scf|^2 =  0.181E-12
 
     Pert. #  1: Fermi energy shift (Ry) =     0.1062E+68     0.1827E+48

      iter #  10 total cpu time :  4088.3 secs   av.it.:  19.0
      thresh= 0.425E-07 alpha_mix =  0.700 |ddv_scf|^2 =  0.118E-12
 
     Pert. #  1: Fermi energy shift (Ry) =     0.1059E+68     0.1827E+48

      iter #  11 total cpu time :  4228.0 secs   av.it.:  18.0
      thresh= 0.343E-07 alpha_mix =  0.700 |ddv_scf|^2 =  0.780E-13
 
     Pert. #  1: Fermi energy shift (Ry) =     0.1056E+68     0.1827E+48

      iter #  12 total cpu time :  4366.3 secs   av.it.:  17.0
      thresh= 0.279E-07 alpha_mix =  0.700 |ddv_scf|^2 =  0.650E-14

     End of self-consistent calculation

     Convergence has been achieved 


     Representation #  3 mode #   3

     Self-consistent Calculation
 
     Pert. #  1: Fermi energy shift (Ry) =    -0.3640E+70     0.0000E+00

      iter #   1 total cpu time :  4579.4 secs   av.it.:   6.0
      thresh= 0.100E-01 alpha_mix =  0.700 |ddv_scf|^2 =  0.928E-07
 
     Pert. #  1: Fermi energy shift (Ry) =     0.7376E+68     0.0000E+00

      iter #   2 total cpu time :  4722.0 secs   av.it.:  19.2
      thresh= 0.305E-04 alpha_mix =  0.700 |ddv_scf|^2 =  0.220E-06
 
     Pert. #  1: Fermi energy shift (Ry) =    -0.2473E+68     0.0000E+00

      iter #   3 total cpu time :  4858.1 secs   av.it.:  18.0
      thresh= 0.469E-04 alpha_mix =  0.700 |ddv_scf|^2 =  0.300E-07
 
     Pert. #  1: Fermi energy shift (Ry) =    -0.7837E+66     0.0000E+00

      iter #   4 total cpu time :  4992.8 secs   av.it.:  18.0
      thresh= 0.173E-04 alpha_mix =  0.700 |ddv_scf|^2 =  0.758E-09
 
     Pert. #  1: Fermi energy shift (Ry) =    -0.8215E+67     0.0000E+00

      iter #   5 total cpu time :  5132.6 secs   av.it.:  19.0
      thresh= 0.275E-05 alpha_mix =  0.700 |ddv_scf|^2 =  0.295E-09
 
     Pert. #  1: Fermi energy shift (Ry) =    -0.5867E+67     0.0000E+00

      iter #   6 total cpu time :  5279.2 secs   av.it.:  18.0
      thresh= 0.172E-05 alpha_mix =  0.700 |ddv_scf|^2 =  0.339E-10
 
     Pert. #  1: Fermi energy shift (Ry) =    -0.5052E+67     0.0000E+00

      iter #   7 total cpu time :  5417.1 secs   av.it.:  18.2
      thresh= 0.582E-06 alpha_mix =  0.700 |ddv_scf|^2 =  0.284E-11
 
     Pert. #  1: Fermi energy shift (Ry) =    -0.4534E+67     0.0000E+00

      iter #   8 total cpu time :  5561.1 secs   av.it.:  19.0
      thresh= 0.168E-06 alpha_mix =  0.700 |ddv_scf|^2 =  0.286E-11
 
     Pert. #  1: Fermi energy shift (Ry) =    -0.4740E+67     0.0000E+00

      iter #   9 total cpu time :  5692.7 secs   av.it.:  17.8
      thresh= 0.169E-06 alpha_mix =  0.700 |ddv_scf|^2 =  0.831E-13
 
     Pert. #  1: Fermi energy shift (Ry) =    -0.4829E+67     0.0000E+00

      iter #  10 total cpu time :  5827.0 secs   av.it.:  19.0
      thresh= 0.288E-07 alpha_mix =  0.700 |ddv_scf|^2 =  0.971E-13
 
     Pert. #  1: Fermi energy shift (Ry) =    -0.4767E+67     0.0000E+00

      iter #  11 total cpu time :  5964.0 secs   av.it.:  18.0
      thresh= 0.312E-07 alpha_mix =  0.700 |ddv_scf|^2 =  0.244E-13
 
     Pert. #  1: Fermi energy shift (Ry) =    -0.4764E+67     0.0000E+00

      iter #  12 total cpu time :  6096.4 secs   av.it.:  18.0
      thresh= 0.156E-07 alpha_mix =  0.700 |ddv_scf|^2 =  0.500E-14

     End of self-consistent calculation

     Convergence has been achieved 


     Representation #  4 mode #   4

     Self-consistent Calculation
 
     Pert. #  1: Fermi energy shift (Ry) =    -0.1486E+70     0.9354E+50

      iter #   1 total cpu time :  6308.9 secs   av.it.:   6.0
      thresh= 0.100E-01 alpha_mix =  0.700 |ddv_scf|^2 =  0.111E-06
 
     Pert. #  1: Fermi energy shift (Ry) =     0.2106E+68     0.7308E+48

      iter #   2 total cpu time :  6452.6 secs   av.it.:  18.8
      thresh= 0.334E-04 alpha_mix =  0.700 |ddv_scf|^2 =  0.130E-06
 
     Pert. #  1: Fermi energy shift (Ry) =    -0.5618E+67    -0.3654E+48

      iter #   3 total cpu time :  6589.8 secs   av.it.:  18.0
      thresh= 0.361E-04 alpha_mix =  0.700 |ddv_scf|^2 =  0.494E-07
 
     Pert. #  1: Fermi energy shift (Ry) =    -0.1217E+68     0.7308E+48

      iter #   4 total cpu time :  6727.3 secs   av.it.:  17.2
      thresh= 0.222E-04 alpha_mix =  0.700 |ddv_scf|^2 =  0.935E-09
 
     Pert. #  1: Fermi energy shift (Ry) =    -0.1897E+66     0.1827E+48

      iter #   5 total cpu time :  6862.1 secs   av.it.:  18.0
      thresh= 0.306E-05 alpha_mix =  0.700 |ddv_scf|^2 =  0.482E-09
 
     Pert. #  1: Fermi energy shift (Ry) =    -0.2304E+67     0.1827E+48

      iter #   6 total cpu time :  6993.9 secs   av.it.:  17.0
      thresh= 0.220E-05 alpha_mix =  0.700 |ddv_scf|^2 =  0.474E-11
 
     Pert. #  1: Fermi energy shift (Ry) =    -0.2268E+67     0.3654E+48

      iter #   7 total cpu time :  7141.0 secs   av.it.:  19.0
      thresh= 0.218E-06 alpha_mix =  0.700 |ddv_scf|^2 =  0.765E-11
 
     Pert. #  1: Fermi energy shift (Ry) =    -0.2592E+67     0.3654E+48

      iter #   8 total cpu time :  7276.0 secs   av.it.:  17.8
      thresh= 0.277E-06 alpha_mix =  0.700 |ddv_scf|^2 =  0.289E-12
 
     Pert. #  1: Fermi energy shift (Ry) =    -0.2470E+67     0.3654E+48

      iter #   9 total cpu time :  7409.3 secs   av.it.:  18.0
      thresh= 0.538E-07 alpha_mix =  0.700 |ddv_scf|^2 =  0.111E-12
 
     Pert. #  1: Fermi energy shift (Ry) =    -0.2582E+67     0.3654E+48

      iter #  10 total cpu time :  7556.0 secs   av.it.:  19.0
      thresh= 0.333E-07 alpha_mix =  0.700 |ddv_scf|^2 =  0.265E-12
 
     Pert. #  1: Fermi energy shift (Ry) =    -0.2555E+67     0.3654E+48

      iter #  11 total cpu time :  7683.3 secs   av.it.:  17.0
      thresh= 0.515E-07 alpha_mix =  0.700 |ddv_scf|^2 =  0.280E-13
 
     Pert. #  1: Fermi energy shift (Ry) =    -0.2527E+67     0.3654E+48

      iter #  12 total cpu time :  7823.1 secs   av.it.:  18.0
      thresh= 0.167E-07 alpha_mix =  0.700 |ddv_scf|^2 =  0.793E-14

     End of self-consistent calculation

     Convergence has been achieved 


     Representation #  5 mode #   5

     Self-consistent Calculation
 
     Pert. #  1: Fermi energy shift (Ry) =    -0.9834E+69    -0.5986E+52

      iter #   1 total cpu time :  8044.3 secs   av.it.:   6.0
      thresh= 0.100E-01 alpha_mix =  0.700 |ddv_scf|^2 =  0.152E-06
 
     Pert. #  1: Fermi energy shift (Ry) =     0.9976E+68     0.3508E+50

      iter #   2 total cpu time :  8194.7 secs   av.it.:  19.5
      thresh= 0.390E-04 alpha_mix =  0.700 |ddv_scf|^2 =  0.523E-06
 
     Pert. #  1: Fermi energy shift (Ry) =     0.3161E+67    -0.3800E+50

      iter #   3 total cpu time :  8341.8 secs   av.it.:  17.8
      thresh= 0.723E-04 alpha_mix =  0.700 |ddv_scf|^2 =  0.284E-07
 
     Pert. #  1: Fermi energy shift (Ry) =     0.5015E+66     0.1644E+49

      iter #   4 total cpu time :  8491.4 secs   av.it.:  18.2
      thresh= 0.168E-04 alpha_mix =  0.700 |ddv_scf|^2 =  0.148E-08
 
     Pert. #  1: Fermi energy shift (Ry) =    -0.1142E+68     0.1827E+49

      iter #   5 total cpu time :  8629.9 secs   av.it.:  18.0
      thresh= 0.385E-05 alpha_mix =  0.700 |ddv_scf|^2 =  0.440E-09
 
     Pert. #  1: Fermi energy shift (Ry) =    -0.1168E+68     0.1827E+49

      iter #   6 total cpu time :  8763.4 secs   av.it.:  18.0
      thresh= 0.210E-05 alpha_mix =  0.700 |ddv_scf|^2 =  0.297E-10
 
     Pert. #  1: Fermi energy shift (Ry) =    -0.1136E+68     0.2010E+49

      iter #   7 total cpu time :  8897.2 secs   av.it.:  18.0
      thresh= 0.545E-06 alpha_mix =  0.700 |ddv_scf|^2 =  0.367E-11
 
     Pert. #  1: Fermi energy shift (Ry) =    -0.1142E+68     0.2010E+49

      iter #   8 total cpu time :  9041.3 secs   av.it.:  18.8
      thresh= 0.192E-06 alpha_mix =  0.700 |ddv_scf|^2 =  0.215E-11
 
     Pert. #  1: Fermi energy shift (Ry) =    -0.1124E+68     0.2010E+49

      iter #   9 total cpu time :  9186.5 secs   av.it.:  18.0
      thresh= 0.147E-06 alpha_mix =  0.700 |ddv_scf|^2 =  0.629E-13
 
     Pert. #  1: Fermi energy shift (Ry) =    -0.1130E+68     0.2010E+49

      iter #  10 total cpu time :  9339.4 secs   av.it.:  19.5
      thresh= 0.251E-07 alpha_mix =  0.700 |ddv_scf|^2 =  0.905E-13
 
     Pert. #  1: Fermi energy shift (Ry) =    -0.1126E+68     0.2010E+49

      iter #  11 total cpu time :  9480.3 secs   av.it.:  18.0
      thresh= 0.301E-07 alpha_mix =  0.700 |ddv_scf|^2 =  0.559E-14

     End of self-consistent calculation

     Convergence has been achieved 


     Representation #  6 mode #   6

     Self-consistent Calculation
 
     Pert. #  1: Fermi energy shift (Ry) =    -0.2438E+70    -0.9354E+51

      iter #   1 total cpu time :  9697.1 secs   av.it.:   6.0
      thresh= 0.100E-01 alpha_mix =  0.700 |ddv_scf|^2 =  0.907E-07
 
     Pert. #  1: Fermi energy shift (Ry) =     0.5027E+68    -0.2923E+49

      iter #   2 total cpu time :  9846.5 secs   av.it.:  19.0
      thresh= 0.301E-04 alpha_mix =  0.700 |ddv_scf|^2 =  0.155E-06
 
     Pert. #  1: Fermi energy shift (Ry) =    -0.2135E+68    -0.8221E+48

      iter #   3 total cpu time :  9988.7 secs   av.it.:  18.0
      thresh= 0.393E-04 alpha_mix =  0.700 |ddv_scf|^2 =  0.337E-07
 
     Pert. #  1: Fermi energy shift (Ry) =    -0.1508E+68    -0.1142E+48

      iter #   4 total cpu time : 10132.4 secs   av.it.:  18.0
      thresh= 0.183E-04 alpha_mix =  0.700 |ddv_scf|^2 =  0.114E-08
 
     Pert. #  1: Fermi energy shift (Ry) =    -0.7006E+67    -0.9134E+48

      iter #   5 total cpu time : 10277.1 secs   av.it.:  18.0
      thresh= 0.338E-05 alpha_mix =  0.700 |ddv_scf|^2 =  0.402E-09
 
     Pert. #  1: Fermi energy shift (Ry) =    -0.7296E+67    -0.6394E+48

      iter #   6 total cpu time : 10411.8 secs   av.it.:  17.5
      thresh= 0.201E-05 alpha_mix =  0.700 |ddv_scf|^2 =  0.191E-10
 
     Pert. #  1: Fermi energy shift (Ry) =    -0.6609E+67    -0.7308E+48

      iter #   7 total cpu time : 10544.8 secs   av.it.:  18.0
      thresh= 0.437E-06 alpha_mix =  0.700 |ddv_scf|^2 =  0.504E-11
 
     Pert. #  1: Fermi energy shift (Ry) =    -0.6976E+67    -0.7308E+48

      iter #   8 total cpu time : 10682.7 secs   av.it.:  18.0
      thresh= 0.225E-06 alpha_mix =  0.700 |ddv_scf|^2 =  0.179E-11
 
     Pert. #  1: Fermi energy shift (Ry) =    -0.6861E+67    -0.7308E+48

      iter #   9 total cpu time : 10814.0 secs   av.it.:  17.0
      thresh= 0.134E-06 alpha_mix =  0.700 |ddv_scf|^2 =  0.899E-13
 
     Pert. #  1: Fermi energy shift (Ry) =    -0.6973E+67    -0.7308E+48

      iter #  10 total cpu time : 10957.5 secs   av.it.:  19.0
      thresh= 0.300E-07 alpha_mix =  0.700 |ddv_scf|^2 =  0.143E-12
 
     Pert. #  1: Fermi energy shift (Ry) =    -0.6878E+67    -0.7308E+48

      iter #  11 total cpu time : 11094.9 secs   av.it.:  18.0
      thresh= 0.378E-07 alpha_mix =  0.700 |ddv_scf|^2 =  0.110E-13
 
     Pert. #  1: Fermi energy shift (Ry) =    -0.6883E+67    -0.7308E+48

      iter #  12 total cpu time : 11233.7 secs   av.it.:  19.0
      thresh= 0.105E-07 alpha_mix =  0.700 |ddv_scf|^2 =  0.121E-13
 
     Pert. #  1: Fermi energy shift (Ry) =    -0.6885E+67    -0.7308E+48

      iter #  13 total cpu time : 11366.5 secs   av.it.:  18.0
      thresh= 0.110E-07 alpha_mix =  0.700 |ddv_scf|^2 =  0.228E-14

     End of self-consistent calculation

     Convergence has been achieved 


     Representation #  7 mode #   7

     Self-consistent Calculation
 
     Pert. #  1: Fermi energy shift (Ry) =     0.4251E+70    -0.1169E+50

      iter #   1 total cpu time : 11581.2 secs   av.it.:   6.0
      thresh= 0.100E-01 alpha_mix =  0.700 |ddv_scf|^2 =  0.129E-06
 
     Pert. #  1: Fermi energy shift (Ry) =    -0.1313E+69     0.3654E+48

      iter #   2 total cpu time : 11727.7 secs   av.it.:  19.0
      thresh= 0.359E-04 alpha_mix =  0.700 |ddv_scf|^2 =  0.379E-06
 
     Pert. #  1: Fermi energy shift (Ry) =     0.2408E+68     0.1827E+48

      iter #   3 total cpu time : 11866.4 secs   av.it.:  17.8
      thresh= 0.616E-04 alpha_mix =  0.700 |ddv_scf|^2 =  0.333E-07
 
     Pert. #  1: Fermi energy shift (Ry) =    -0.4372E+67    -0.3654E+48

      iter #   4 total cpu time : 12016.3 secs   av.it.:  18.0
      thresh= 0.182E-04 alpha_mix =  0.700 |ddv_scf|^2 =  0.187E-08
 
     Pert. #  1: Fermi energy shift (Ry) =    -0.2360E+67    -0.1827E+48

      iter #   5 total cpu time : 12162.5 secs   av.it.:  18.0
      thresh= 0.432E-05 alpha_mix =  0.700 |ddv_scf|^2 =  0.620E-09
 
     Pert. #  1: Fermi energy shift (Ry) =     0.2041E+67    -0.3654E+48

      iter #   6 total cpu time : 12304.9 secs   av.it.:  18.0
      thresh= 0.249E-05 alpha_mix =  0.700 |ddv_scf|^2 =  0.302E-10
 
     Pert. #  1: Fermi energy shift (Ry) =     0.1801E+67    -0.3654E+48

      iter #   7 total cpu time : 12445.1 secs   av.it.:  18.5
      thresh= 0.549E-06 alpha_mix =  0.700 |ddv_scf|^2 =  0.299E-11
 
     Pert. #  1: Fermi energy shift (Ry) =     0.1912E+67    -0.3654E+48

      iter #   8 total cpu time : 12588.2 secs   av.it.:  19.0
      thresh= 0.173E-06 alpha_mix =  0.700 |ddv_scf|^2 =  0.341E-11
 
     Pert. #  1: Fermi energy shift (Ry) =     0.1889E+67    -0.3654E+48

      iter #   9 total cpu time : 12720.5 secs   av.it.:  17.2
      thresh= 0.185E-06 alpha_mix =  0.700 |ddv_scf|^2 =  0.530E-13
 
     Pert. #  1: Fermi energy shift (Ry) =     0.1908E+67    -0.3654E+48

      iter #  10 total cpu time : 12872.0 secs   av.it.:  19.0
      thresh= 0.230E-07 alpha_mix =  0.700 |ddv_scf|^2 =  0.523E-13
 
     Pert. #  1: Fermi energy shift (Ry) =     0.1863E+67    -0.3654E+48

      iter #  11 total cpu time : 13005.1 secs   av.it.:  18.5
      thresh= 0.229E-07 alpha_mix =  0.700 |ddv_scf|^2 =  0.295E-13
 
     Pert. #  1: Fermi energy shift (Ry) =     0.1837E+67    -0.3654E+48

      iter #  12 total cpu time : 13139.7 secs   av.it.:  18.2
      thresh= 0.172E-07 alpha_mix =  0.700 |ddv_scf|^2 =  0.147E-13
 
     Pert. #  1: Fermi energy shift (Ry) =     0.1857E+67    -0.3654E+48

      iter #  13 total cpu time : 13277.8 secs   av.it.:  18.0
      thresh= 0.121E-07 alpha_mix =  0.700 |ddv_scf|^2 =  0.198E-14

     End of self-consistent calculation

     Convergence has been achieved 


     Representation #  8 mode #   8

     Self-consistent Calculation
 
     Pert. #  1: Fermi energy shift (Ry) =    -0.2652E+70    -0.3508E+50

      iter #   1 total cpu time : 13494.1 secs   av.it.:   6.0
      thresh= 0.100E-01 alpha_mix =  0.700 |ddv_scf|^2 =  0.194E-06
 
     Pert. #  1: Fermi energy shift (Ry) =     0.2865E+68     0.2192E+49

      iter #   2 total cpu time : 13638.5 secs   av.it.:  18.8
      thresh= 0.441E-04 alpha_mix =  0.700 |ddv_scf|^2 =  0.373E-06
 
     Pert. #  1: Fermi energy shift (Ry) =    -0.1081E+67    -0.1462E+49

      iter #   3 total cpu time : 13772.6 secs   av.it.:  17.5
      thresh= 0.610E-04 alpha_mix =  0.700 |ddv_scf|^2 =  0.585E-07
 
     Pert. #  1: Fermi energy shift (Ry) =     0.6552E+67     0.1827E+48

      iter #   4 total cpu time : 13916.2 secs   av.it.:  17.8
      thresh= 0.242E-04 alpha_mix =  0.700 |ddv_scf|^2 =  0.332E-08
 
     Pert. #  1: Fermi energy shift (Ry) =     0.1123E+68    -0.3654E+48

      iter #   5 total cpu time : 14051.9 secs   av.it.:  17.0
      thresh= 0.576E-05 alpha_mix =  0.700 |ddv_scf|^2 =  0.819E-09
 
     Pert. #  1: Fermi energy shift (Ry) =     0.3618E+67    -0.2284E+47

      iter #   6 total cpu time : 14192.1 secs   av.it.:  18.0
      thresh= 0.286E-05 alpha_mix =  0.700 |ddv_scf|^2 =  0.196E-10
 
     Pert. #  1: Fermi energy shift (Ry) =     0.5676E+67    -0.4567E+47

      iter #   7 total cpu time : 14334.6 secs   av.it.:  18.8
      thresh= 0.442E-06 alpha_mix =  0.700 |ddv_scf|^2 =  0.998E-11
 
     Pert. #  1: Fermi energy shift (Ry) =     0.4883E+67    -0.4567E+47

      iter #   8 total cpu time : 14479.3 secs   av.it.:  18.0
      thresh= 0.316E-06 alpha_mix =  0.700 |ddv_scf|^2 =  0.201E-11
 
     Pert. #  1: Fermi energy shift (Ry) =     0.5208E+67    -0.4567E+47

      iter #   9 total cpu time : 14612.5 secs   av.it.:  17.8
      thresh= 0.142E-06 alpha_mix =  0.700 |ddv_scf|^2 =  0.148E-12
 
     Pert. #  1: Fermi energy shift (Ry) =     0.5151E+67    -0.4567E+47

      iter #  10 total cpu time : 14749.1 secs   av.it.:  18.0
      thresh= 0.384E-07 alpha_mix =  0.700 |ddv_scf|^2 =  0.107E-12
 
     Pert. #  1: Fermi energy shift (Ry) =     0.5163E+67    -0.4567E+47

      iter #  11 total cpu time : 14879.6 secs   av.it.:  17.5
      thresh= 0.326E-07 alpha_mix =  0.700 |ddv_scf|^2 =  0.365E-13
 
     Pert. #  1: Fermi energy shift (Ry) =     0.5212E+67    -0.4567E+47

      iter #  12 total cpu time : 15018.9 secs   av.it.:  18.5
      thresh= 0.191E-07 alpha_mix =  0.700 |ddv_scf|^2 =  0.283E-13
 
     Pert. #  1: Fermi energy shift (Ry) =     0.5147E+67    -0.4567E+47

      iter #  13 total cpu time : 15160.3 secs   av.it.:  18.0
      thresh= 0.168E-07 alpha_mix =  0.700 |ddv_scf|^2 =  0.791E-14

     End of self-consistent calculation

     Convergence has been achieved 


     Representation #  9 mode #   9

     Self-consistent Calculation
 
     Pert. #  1: Fermi energy shift (Ry) =     0.2338E+70     0.0000E+00

      iter #   1 total cpu time : 15381.5 secs   av.it.:   6.5
      thresh= 0.100E-01 alpha_mix =  0.700 |ddv_scf|^2 =  0.169E-06
 
     Pert. #  1: Fermi energy shift (Ry) =    -0.1395E+69     0.0000E+00

      iter #   2 total cpu time : 15529.7 secs   av.it.:  19.2
      thresh= 0.411E-04 alpha_mix =  0.700 |ddv_scf|^2 =  0.574E-06
 
     Pert. #  1: Fermi energy shift (Ry) =     0.1078E+68     0.0000E+00

      iter #   3 total cpu time : 15675.1 secs   av.it.:  17.8
      thresh= 0.758E-04 alpha_mix =  0.700 |ddv_scf|^2 =  0.301E-07
 
     Pert. #  1: Fermi energy shift (Ry) =     0.3971E+66     0.0000E+00

      iter #   4 total cpu time : 15814.5 secs   av.it.:  18.2
      thresh= 0.174E-04 alpha_mix =  0.700 |ddv_scf|^2 =  0.149E-08
 
     Pert. #  1: Fermi energy shift (Ry) =     0.7873E+67     0.0000E+00

      iter #   5 total cpu time : 15950.5 secs   av.it.:  18.2
      thresh= 0.386E-05 alpha_mix =  0.700 |ddv_scf|^2 =  0.401E-09
 
     Pert. #  1: Fermi energy shift (Ry) =     0.1002E+68     0.0000E+00

      iter #   6 total cpu time : 16083.2 secs   av.it.:  18.0
      thresh= 0.200E-05 alpha_mix =  0.700 |ddv_scf|^2 =  0.348E-10
 
     Pert. #  1: Fermi energy shift (Ry) =     0.9050E+67     0.0000E+00

      iter #   7 total cpu time : 16218.7 secs   av.it.:  18.0
      thresh= 0.590E-06 alpha_mix =  0.700 |ddv_scf|^2 =  0.134E-11
 
     Pert. #  1: Fermi energy shift (Ry) =     0.9220E+67     0.0000E+00

      iter #   8 total cpu time : 16368.2 secs   av.it.:  19.0
      thresh= 0.116E-06 alpha_mix =  0.700 |ddv_scf|^2 =  0.257E-11
 
     Pert. #  1: Fermi energy shift (Ry) =     0.8891E+67     0.0000E+00

      iter #   9 total cpu time : 16506.6 secs   av.it.:  17.8
      thresh= 0.160E-06 alpha_mix =  0.700 |ddv_scf|^2 =  0.697E-13
 
     Pert. #  1: Fermi energy shift (Ry) =     0.9037E+67     0.0000E+00

      iter #  10 total cpu time : 16653.1 secs   av.it.:  19.5
      thresh= 0.264E-07 alpha_mix =  0.700 |ddv_scf|^2 =  0.109E-12
 
     Pert. #  1: Fermi energy shift (Ry) =     0.8935E+67     0.0000E+00

      iter #  11 total cpu time : 16799.0 secs   av.it.:  18.0
      thresh= 0.330E-07 alpha_mix =  0.700 |ddv_scf|^2 =  0.178E-13
 
     Pert. #  1: Fermi energy shift (Ry) =     0.8927E+67     0.0000E+00

      iter #  12 total cpu time : 16944.4 secs   av.it.:  18.2
      thresh= 0.133E-07 alpha_mix =  0.700 |ddv_scf|^2 =  0.863E-14

     End of self-consistent calculation

     Convergence has been achieved 


     Representation # 10 mode #  10

     Self-consistent Calculation
 
     Pert. #  1: Fermi energy shift (Ry) =     0.1023E+70     0.3741E+51

      iter #   1 total cpu time : 17170.9 secs   av.it.:   7.0
      thresh= 0.100E-01 alpha_mix =  0.700 |ddv_scf|^2 =  0.794E-06
 
     Pert. #  1: Fermi energy shift (Ry) =     0.5247E+68     0.2631E+50

      iter #   2 total cpu time : 17325.2 secs   av.it.:  18.8
      thresh= 0.891E-04 alpha_mix =  0.700 |ddv_scf|^2 =  0.361E-05
 
     Pert. #  1: Fermi energy shift (Ry) =    -0.5241E+67     0.1279E+49

      iter #   3 total cpu time : 17454.0 secs   av.it.:  16.8
      thresh= 0.190E-03 alpha_mix =  0.700 |ddv_scf|^2 =  0.127E-06
 
     Pert. #  1: Fermi energy shift (Ry) =    -0.9297E+67     0.1370E+48

      iter #   4 total cpu time : 17596.3 secs   av.it.:  17.0
      thresh= 0.357E-04 alpha_mix =  0.700 |ddv_scf|^2 =  0.814E-08
 
     Pert. #  1: Fermi energy shift (Ry) =    -0.1707E+68    -0.1827E+48

      iter #   5 total cpu time : 17731.0 secs   av.it.:  17.8
      thresh= 0.902E-05 alpha_mix =  0.700 |ddv_scf|^2 =  0.563E-09
 
     Pert. #  1: Fermi energy shift (Ry) =    -0.1154E+68     0.2284E+48

      iter #   6 total cpu time : 17877.8 secs   av.it.:  18.0
      thresh= 0.237E-05 alpha_mix =  0.700 |ddv_scf|^2 =  0.643E-10
 
     Pert. #  1: Fermi energy shift (Ry) =    -0.1407E+68    -0.4567E+47

      iter #   7 total cpu time : 18010.0 secs   av.it.:  18.8
      thresh= 0.802E-06 alpha_mix =  0.700 |ddv_scf|^2 =  0.505E-10
 
     Pert. #  1: Fermi energy shift (Ry) =    -0.1274E+68    -0.1028E+48

      iter #   8 total cpu time : 18145.9 secs   av.it.:  18.0
      thresh= 0.711E-06 alpha_mix =  0.700 |ddv_scf|^2 =  0.326E-11
 
     Pert. #  1: Fermi energy shift (Ry) =    -0.1280E+68    -0.4567E+47

      iter #   9 total cpu time : 18285.0 secs   av.it.:  17.8
      thresh= 0.180E-06 alpha_mix =  0.700 |ddv_scf|^2 =  0.100E-11
 
     Pert. #  1: Fermi energy shift (Ry) =    -0.1287E+68    -0.1028E+48

      iter #  10 total cpu time : 18428.6 secs   av.it.:  18.2
      thresh= 0.100E-06 alpha_mix =  0.700 |ddv_scf|^2 =  0.129E-11
 
     Pert. #  1: Fermi energy shift (Ry) =    -0.1274E+68    -0.1028E+48

      iter #  11 total cpu time : 18565.9 secs   av.it.:  18.0
      thresh= 0.114E-06 alpha_mix =  0.700 |ddv_scf|^2 =  0.570E-12
 
     Pert. #  1: Fermi energy shift (Ry) =    -0.1284E+68    -0.1142E+48

      iter #  12 total cpu time : 18694.4 secs   av.it.:  17.8
      thresh= 0.755E-07 alpha_mix =  0.700 |ddv_scf|^2 =  0.494E-13
 
     Pert. #  1: Fermi energy shift (Ry) =    -0.1281E+68    -0.1142E+48

      iter #  13 total cpu time : 18834.6 secs   av.it.:  17.8
      thresh= 0.222E-07 alpha_mix =  0.700 |ddv_scf|^2 =  0.115E-13
 
     Pert. #  1: Fermi energy shift (Ry) =    -0.1282E+68    -0.1142E+48

      iter #  14 total cpu time : 18967.6 secs   av.it.:  18.0
      thresh= 0.107E-07 alpha_mix =  0.700 |ddv_scf|^2 =  0.279E-14

     End of self-consistent calculation

     Convergence has been achieved 


     Representation # 11 mode #  11

     Self-consistent Calculation
 
     Pert. #  1: Fermi energy shift (Ry) =     0.3479E+70     0.2806E+51

      iter #   1 total cpu time : 19189.7 secs   av.it.:   6.0
      thresh= 0.100E-01 alpha_mix =  0.700 |ddv_scf|^2 =  0.147E-06
 
     Pert. #  1: Fermi energy shift (Ry) =    -0.5945E+68    -0.4567E+47

      iter #   2 total cpu time : 19334.0 secs   av.it.:  19.0
      thresh= 0.384E-04 alpha_mix =  0.700 |ddv_scf|^2 =  0.425E-06
 
     Pert. #  1: Fermi energy shift (Ry) =    -0.1064E+68     0.5481E+48

      iter #   3 total cpu time : 19474.0 secs   av.it.:  17.2
      thresh= 0.652E-04 alpha_mix =  0.700 |ddv_scf|^2 =  0.402E-07
 
     Pert. #  1: Fermi energy shift (Ry) =    -0.3753E+67    -0.7308E+48

      iter #   4 total cpu time : 19608.0 secs   av.it.:  17.8
      thresh= 0.200E-04 alpha_mix =  0.700 |ddv_scf|^2 =  0.330E-08
 
     Pert. #  1: Fermi energy shift (Ry) =    -0.1046E+67     0.3425E+47

      iter #   5 total cpu time : 19743.9 secs   av.it.:  17.2
      thresh= 0.574E-05 alpha_mix =  0.700 |ddv_scf|^2 =  0.562E-09
 
     Pert. #  1: Fermi energy shift (Ry) =     0.6738E+66    -0.9134E+47

      iter #   6 total cpu time : 19900.6 secs   av.it.:  18.0
      thresh= 0.237E-05 alpha_mix =  0.700 |ddv_scf|^2 =  0.257E-10
 
     Pert. #  1: Fermi energy shift (Ry) =     0.1426E+67    -0.2284E+47

      iter #   7 total cpu time : 20043.9 secs   av.it.:  19.0
      thresh= 0.507E-06 alpha_mix =  0.700 |ddv_scf|^2 =  0.778E-11
 
     Pert. #  1: Fermi energy shift (Ry) =     0.1369E+67    -0.1142E+47

      iter #   8 total cpu time : 20175.6 secs   av.it.:  18.0
      thresh= 0.279E-06 alpha_mix =  0.700 |ddv_scf|^2 =  0.142E-11
 
     Pert. #  1: Fermi energy shift (Ry) =     0.1371E+67    -0.1142E+47

      iter #   9 total cpu time : 20312.9 secs   av.it.:  18.0
      thresh= 0.119E-06 alpha_mix =  0.700 |ddv_scf|^2 =  0.164E-12
 
     Pert. #  1: Fermi energy shift (Ry) =     0.1482E+67    -0.1142E+47

      iter #  10 total cpu time : 20449.7 secs   av.it.:  19.0
      thresh= 0.404E-07 alpha_mix =  0.700 |ddv_scf|^2 =  0.148E-12
 
     Pert. #  1: Fermi energy shift (Ry) =     0.1439E+67    -0.1142E+47

      iter #  11 total cpu time : 20588.0 secs   av.it.:  18.0
      thresh= 0.385E-07 alpha_mix =  0.700 |ddv_scf|^2 =  0.379E-13
 
     Pert. #  1: Fermi energy shift (Ry) =     0.1388E+67    -0.1142E+47

      iter #  12 total cpu time : 20726.5 secs   av.it.:  18.8
      thresh= 0.195E-07 alpha_mix =  0.700 |ddv_scf|^2 =  0.290E-13
 
     Pert. #  1: Fermi energy shift (Ry) =     0.1400E+67    -0.1142E+47

      iter #  13 total cpu time : 20858.5 secs   av.it.:  18.0
      thresh= 0.170E-07 alpha_mix =  0.700 |ddv_scf|^2 =  0.429E-14

     End of self-consistent calculation

     Convergence has been achieved 


     Representation # 12 mode #  12

     Self-consistent Calculation
 
     Pert. #  1: Fermi energy shift (Ry) =    -0.1725E+70    -0.4677E+50

      iter #   1 total cpu time : 21082.0 secs   av.it.:   7.0
      thresh= 0.100E-01 alpha_mix =  0.700 |ddv_scf|^2 =  0.815E-06
 
     Pert. #  1: Fermi energy shift (Ry) =    -0.1355E+69     0.4385E+49

      iter #   2 total cpu time : 21230.1 secs   av.it.:  19.0
      thresh= 0.903E-04 alpha_mix =  0.700 |ddv_scf|^2 =  0.301E-05
 
     Pert. #  1: Fermi energy shift (Ry) =     0.9831E+68     0.2192E+49

      iter #   3 total cpu time : 21367.1 secs   av.it.:  17.0
      thresh= 0.174E-03 alpha_mix =  0.700 |ddv_scf|^2 =  0.120E-06
 
     Pert. #  1: Fermi energy shift (Ry) =     0.2274E+66    -0.7308E+48

      iter #   4 total cpu time : 21504.6 secs   av.it.:  17.8
      thresh= 0.346E-04 alpha_mix =  0.700 |ddv_scf|^2 =  0.394E-08
 
     Pert. #  1: Fermi energy shift (Ry) =    -0.7175E+67     0.2740E+48

      iter #   5 total cpu time : 21641.4 secs   av.it.:  18.0
      thresh= 0.627E-05 alpha_mix =  0.700 |ddv_scf|^2 =  0.140E-08
 
     Pert. #  1: Fermi energy shift (Ry) =    -0.2513E+67     0.1096E+49

      iter #   6 total cpu time : 21771.4 secs   av.it.:  17.8
      thresh= 0.374E-05 alpha_mix =  0.700 |ddv_scf|^2 =  0.404E-10
 
     Pert. #  1: Fermi energy shift (Ry) =    -0.3415E+67    -0.3654E+48

      iter #   7 total cpu time : 21910.5 secs   av.it.:  18.5
      thresh= 0.635E-06 alpha_mix =  0.700 |ddv_scf|^2 =  0.194E-10
 
     Pert. #  1: Fermi energy shift (Ry) =    -0.3152E+67    -0.1827E+48

      iter #   8 total cpu time : 22048.1 secs   av.it.:  18.0
      thresh= 0.440E-06 alpha_mix =  0.700 |ddv_scf|^2 =  0.115E-10
 
     Pert. #  1: Fermi energy shift (Ry) =    -0.3134E+67    -0.2740E+48

      iter #   9 total cpu time : 22177.1 secs   av.it.:  17.0
      thresh= 0.339E-06 alpha_mix =  0.700 |ddv_scf|^2 =  0.125E-11
 
     Pert. #  1: Fermi energy shift (Ry) =    -0.3203E+67    -0.1827E+48

      iter #  10 total cpu time : 22333.2 secs   av.it.:  19.0
      thresh= 0.112E-06 alpha_mix =  0.700 |ddv_scf|^2 =  0.232E-11
 
     Pert. #  1: Fermi energy shift (Ry) =    -0.3203E+67    -0.1827E+48

      iter #  11 total cpu time : 22467.8 secs   av.it.:  18.0
      thresh= 0.152E-06 alpha_mix =  0.700 |ddv_scf|^2 =  0.576E-12
 
     Pert. #  1: Fermi energy shift (Ry) =    -0.3229E+67    -0.1827E+48

      iter #  12 total cpu time : 22603.1 secs   av.it.:  17.8
      thresh= 0.759E-07 alpha_mix =  0.700 |ddv_scf|^2 =  0.486E-13
 
     Pert. #  1: Fermi energy shift (Ry) =    -0.3210E+67    -0.1827E+48

      iter #  13 total cpu time : 22744.7 secs   av.it.:  18.0
      thresh= 0.220E-07 alpha_mix =  0.700 |ddv_scf|^2 =  0.103E-13
 
     Pert. #  1: Fermi energy shift (Ry) =    -0.3232E+67    -0.1827E+48

      iter #  14 total cpu time : 22892.1 secs   av.it.:  18.8
      thresh= 0.101E-07 alpha_mix =  0.700 |ddv_scf|^2 =  0.684E-14

     End of self-consistent calculation

     Convergence has been achieved 


     Representation # 13 mode #  13

     Self-consistent Calculation
 
     Pert. #  1: Fermi energy shift (Ry) =    -0.4718E+70    -0.1497E+52

      iter #   1 total cpu time : 23112.2 secs   av.it.:   6.0
      thresh= 0.100E-01 alpha_mix =  0.700 |ddv_scf|^2 =  0.150E-06
 
     Pert. #  1: Fermi energy shift (Ry) =     0.8192E+68     0.5481E+48

      iter #   2 total cpu time : 23250.1 secs   av.it.:  19.0
      thresh= 0.387E-04 alpha_mix =  0.700 |ddv_scf|^2 =  0.459E-06
 
     Pert. #  1: Fermi energy shift (Ry) =    -0.1758E+68     0.2192E+49

      iter #   3 total cpu time : 23385.2 secs   av.it.:  17.5
      thresh= 0.677E-04 alpha_mix =  0.700 |ddv_scf|^2 =  0.379E-07
 
     Pert. #  1: Fermi energy shift (Ry) =    -0.5765E+67     0.1827E+48

      iter #   4 total cpu time : 23524.6 secs   av.it.:  18.0
      thresh= 0.195E-04 alpha_mix =  0.700 |ddv_scf|^2 =  0.225E-08
 
     Pert. #  1: Fermi energy shift (Ry) =    -0.9294E+67     0.3654E+48

      iter #   5 total cpu time : 23669.3 secs   av.it.:  18.0
      thresh= 0.474E-05 alpha_mix =  0.700 |ddv_scf|^2 =  0.627E-09
 
     Pert. #  1: Fermi energy shift (Ry) =    -0.1012E+68     0.1827E+48

      iter #   6 total cpu time : 23804.0 secs   av.it.:  18.0
      thresh= 0.250E-05 alpha_mix =  0.700 |ddv_scf|^2 =  0.276E-10
 
     Pert. #  1: Fermi energy shift (Ry) =    -0.1095E+68     0.3654E+48

      iter #   7 total cpu time : 23949.7 secs   av.it.:  18.5
      thresh= 0.525E-06 alpha_mix =  0.700 |ddv_scf|^2 =  0.777E-11
 
     Pert. #  1: Fermi energy shift (Ry) =    -0.1084E+68     0.3654E+48

      iter #   8 total cpu time : 24088.9 secs   av.it.:  18.0
      thresh= 0.279E-06 alpha_mix =  0.700 |ddv_scf|^2 =  0.137E-11
 
     Pert. #  1: Fermi energy shift (Ry) =    -0.1087E+68     0.3654E+48

      iter #   9 total cpu time : 24231.5 secs   av.it.:  18.0
      thresh= 0.117E-06 alpha_mix =  0.700 |ddv_scf|^2 =  0.808E-13
 
     Pert. #  1: Fermi energy shift (Ry) =    -0.1094E+68     0.3654E+48

      iter #  10 total cpu time : 24377.8 secs   av.it.:  20.0
      thresh= 0.284E-07 alpha_mix =  0.700 |ddv_scf|^2 =  0.261E-12
 
     Pert. #  1: Fermi energy shift (Ry) =    -0.1094E+68     0.3654E+48

      iter #  11 total cpu time : 24508.9 secs   av.it.:  17.0
      thresh= 0.511E-07 alpha_mix =  0.700 |ddv_scf|^2 =  0.138E-13
 
     Pert. #  1: Fermi energy shift (Ry) =    -0.1088E+68     0.3654E+48

      iter #  12 total cpu time : 24652.0 secs   av.it.:  19.0
      thresh= 0.117E-07 alpha_mix =  0.700 |ddv_scf|^2 =  0.218E-13
 
     Pert. #  1: Fermi energy shift (Ry) =    -0.1089E+68     0.3654E+48

      iter #  13 total cpu time : 24787.2 secs   av.it.:  18.0
      thresh= 0.147E-07 alpha_mix =  0.700 |ddv_scf|^2 =  0.158E-14

     End of self-consistent calculation

     Convergence has been achieved 


     Representation # 14 mode #  14

     Self-consistent Calculation
 
     Pert. #  1: Fermi energy shift (Ry) =    -0.1393E+70     0.4677E+51

      iter #   1 total cpu time : 25011.8 secs   av.it.:   7.0
      thresh= 0.100E-01 alpha_mix =  0.700 |ddv_scf|^2 =  0.641E-06
 
     Pert. #  1: Fermi energy shift (Ry) =     0.9199E+68    -0.2923E+50

      iter #   2 total cpu time : 25159.9 secs   av.it.:  19.0
      thresh= 0.801E-04 alpha_mix =  0.700 |ddv_scf|^2 =  0.231E-05
 
     Pert. #  1: Fermi energy shift (Ry) =    -0.5112E+67    -0.1827E+49

      iter #   3 total cpu time : 25291.5 secs   av.it.:  17.0
      thresh= 0.152E-03 alpha_mix =  0.700 |ddv_scf|^2 =  0.100E-06
 
     Pert. #  1: Fermi energy shift (Ry) =     0.8792E+67     0.3654E+49

      iter #   4 total cpu time : 25430.9 secs   av.it.:  17.2
      thresh= 0.316E-04 alpha_mix =  0.700 |ddv_scf|^2 =  0.517E-08
 
     Pert. #  1: Fermi energy shift (Ry) =     0.6820E+66    -0.1370E+48

      iter #   5 total cpu time : 25563.8 secs   av.it.:  18.0
      thresh= 0.719E-05 alpha_mix =  0.700 |ddv_scf|^2 =  0.528E-09
 
     Pert. #  1: Fermi energy shift (Ry) =    -0.1452E+67     0.5481E+48

      iter #   6 total cpu time : 25700.4 secs   av.it.:  17.2
      thresh= 0.230E-05 alpha_mix =  0.700 |ddv_scf|^2 =  0.398E-10
 
     Pert. #  1: Fermi energy shift (Ry) =    -0.3915E+66    -0.1599E+48

      iter #   7 total cpu time : 25841.1 secs   av.it.:  19.0
      thresh= 0.630E-06 alpha_mix =  0.700 |ddv_scf|^2 =  0.453E-10
 
     Pert. #  1: Fermi energy shift (Ry) =    -0.1512E+66     0.2854E+47

      iter #   8 total cpu time : 25973.5 secs   av.it.:  17.0
      thresh= 0.673E-06 alpha_mix =  0.700 |ddv_scf|^2 =  0.308E-11
 
     Pert. #  1: Fermi energy shift (Ry) =    -0.4315E+66     0.2854E+47

      iter #   9 total cpu time : 26107.1 secs   av.it.:  18.0
      thresh= 0.175E-06 alpha_mix =  0.700 |ddv_scf|^2 =  0.154E-11
 
     Pert. #  1: Fermi energy shift (Ry) =    -0.5355E+66     0.2284E+47

      iter #  10 total cpu time : 26254.4 secs   av.it.:  18.0
      thresh= 0.124E-06 alpha_mix =  0.700 |ddv_scf|^2 =  0.119E-11
 
     Pert. #  1: Fermi energy shift (Ry) =    -0.4807E+66     0.1142E+47

      iter #  11 total cpu time : 26386.3 secs   av.it.:  17.0
      thresh= 0.109E-06 alpha_mix =  0.700 |ddv_scf|^2 =  0.243E-12
 
     Pert. #  1: Fermi energy shift (Ry) =    -0.4365E+66     0.2284E+47

      iter #  12 total cpu time : 26529.8 secs   av.it.:  18.0
      thresh= 0.493E-07 alpha_mix =  0.700 |ddv_scf|^2 =  0.300E-13
 
     Pert. #  1: Fermi energy shift (Ry) =    -0.4626E+66     0.2854E+47

      iter #  13 total cpu time : 26667.1 secs   av.it.:  18.0
      thresh= 0.173E-07 alpha_mix =  0.700 |ddv_scf|^2 =  0.953E-14

     End of self-consistent calculation

     Convergence has been achieved 


     Representation # 15 mode #  15

     Self-consistent Calculation
 
     Pert. #  1: Fermi energy shift (Ry) =     0.1166E+70    -0.2338E+50

      iter #   1 total cpu time : 26892.4 secs   av.it.:   6.8
      thresh= 0.100E-01 alpha_mix =  0.700 |ddv_scf|^2 =  0.277E-06
 
     Pert. #  1: Fermi energy shift (Ry) =    -0.3356E+68    -0.1462E+49

      iter #   2 total cpu time : 27030.3 secs   av.it.:  19.0
      thresh= 0.527E-04 alpha_mix =  0.700 |ddv_scf|^2 =  0.992E-06
 
     Pert. #  1: Fermi energy shift (Ry) =     0.1920E+68    -0.1169E+50

      iter #   3 total cpu time : 27174.0 secs   av.it.:  17.0
      thresh= 0.996E-04 alpha_mix =  0.700 |ddv_scf|^2 =  0.525E-07
 
     Pert. #  1: Fermi energy shift (Ry) =    -0.1127E+68     0.1827E+48

      iter #   4 total cpu time : 27318.0 secs   av.it.:  17.0
      thresh= 0.229E-04 alpha_mix =  0.700 |ddv_scf|^2 =  0.136E-08
 
     Pert. #  1: Fermi energy shift (Ry) =    -0.1135E+68    -0.1462E+49

      iter #   5 total cpu time : 27458.1 secs   av.it.:  18.0
      thresh= 0.368E-05 alpha_mix =  0.700 |ddv_scf|^2 =  0.336E-09
 
     Pert. #  1: Fermi energy shift (Ry) =    -0.1002E+68    -0.1462E+49

      iter #   6 total cpu time : 27596.1 secs   av.it.:  17.5
      thresh= 0.183E-05 alpha_mix =  0.700 |ddv_scf|^2 =  0.275E-10
 
     Pert. #  1: Fermi energy shift (Ry) =    -0.9331E+67    -0.1462E+49

      iter #   7 total cpu time : 27738.6 secs   av.it.:  18.5
      thresh= 0.525E-06 alpha_mix =  0.700 |ddv_scf|^2 =  0.109E-10
 
     Pert. #  1: Fermi energy shift (Ry) =    -0.9377E+67    -0.1462E+49

      iter #   8 total cpu time : 27888.6 secs   av.it.:  18.0
      thresh= 0.330E-06 alpha_mix =  0.700 |ddv_scf|^2 =  0.166E-11
 
     Pert. #  1: Fermi energy shift (Ry) =    -0.9353E+67    -0.1462E+49

      iter #   9 total cpu time : 28039.2 secs   av.it.:  18.0
      thresh= 0.129E-06 alpha_mix =  0.700 |ddv_scf|^2 =  0.606E-12
 
     Pert. #  1: Fermi energy shift (Ry) =    -0.9435E+67    -0.1462E+49

      iter #  10 total cpu time : 28176.4 secs   av.it.:  18.0
      thresh= 0.779E-07 alpha_mix =  0.700 |ddv_scf|^2 =  0.215E-12
 
     Pert. #  1: Fermi energy shift (Ry) =    -0.9365E+67    -0.1462E+49

      iter #  11 total cpu time : 28315.1 secs   av.it.:  17.8
      thresh= 0.463E-07 alpha_mix =  0.700 |ddv_scf|^2 =  0.529E-13
 
     Pert. #  1: Fermi energy shift (Ry) =    -0.9375E+67    -0.1462E+49

      iter #  12 total cpu time : 28450.7 secs   av.it.:  18.0
      thresh= 0.230E-07 alpha_mix =  0.700 |ddv_scf|^2 =  0.697E-14

     End of self-consistent calculation

     Convergence has been achieved 


     Representation # 16 mode #  16

     Self-consistent Calculation
 
     Pert. #  1: Fermi energy shift (Ry) =     0.1023E+70     0.2338E+50

      iter #   1 total cpu time : 28668.2 secs   av.it.:   6.0
      thresh= 0.100E-01 alpha_mix =  0.700 |ddv_scf|^2 =  0.166E-06
 
     Pert. #  1: Fermi energy shift (Ry) =    -0.1635E+69    -0.3654E+48

      iter #   2 total cpu time : 28826.3 secs   av.it.:  19.2
      thresh= 0.408E-04 alpha_mix =  0.700 |ddv_scf|^2 =  0.589E-06
 
     Pert. #  1: Fermi energy shift (Ry) =     0.2377E+68     0.9134E+47

      iter #   3 total cpu time : 28966.5 secs   av.it.:  17.8
      thresh= 0.767E-04 alpha_mix =  0.700 |ddv_scf|^2 =  0.315E-07
 
     Pert. #  1: Fermi energy shift (Ry) =     0.5369E+67     0.1142E+47

      iter #   4 total cpu time : 29103.0 secs   av.it.:  18.0
      thresh= 0.177E-04 alpha_mix =  0.700 |ddv_scf|^2 =  0.228E-08
 
     Pert. #  1: Fermi energy shift (Ry) =     0.1272E+68    -0.9134E+47

      iter #   5 total cpu time : 29244.5 secs   av.it.:  18.0
      thresh= 0.478E-05 alpha_mix =  0.700 |ddv_scf|^2 =  0.548E-09
 
     Pert. #  1: Fermi energy shift (Ry) =     0.1642E+68    -0.4567E+47

      iter #   6 total cpu time : 29383.1 secs   av.it.:  18.0
      thresh= 0.234E-05 alpha_mix =  0.700 |ddv_scf|^2 =  0.329E-10
 
     Pert. #  1: Fermi energy shift (Ry) =     0.1612E+68    -0.4567E+47

      iter #   7 total cpu time : 29523.0 secs   av.it.:  18.2
      thresh= 0.574E-06 alpha_mix =  0.700 |ddv_scf|^2 =  0.820E-11
 
     Pert. #  1: Fermi energy shift (Ry) =     0.1604E+68    -0.4567E+47

      iter #   8 total cpu time : 29668.3 secs   av.it.:  18.0
      thresh= 0.286E-06 alpha_mix =  0.700 |ddv_scf|^2 =  0.221E-11
 
     Pert. #  1: Fermi energy shift (Ry) =     0.1603E+68    -0.4567E+47

      iter #   9 total cpu time : 29828.1 secs   av.it.:  18.0
      thresh= 0.149E-06 alpha_mix =  0.700 |ddv_scf|^2 =  0.157E-12
 
     Pert. #  1: Fermi energy shift (Ry) =     0.1611E+68    -0.4567E+47

      iter #  10 total cpu time : 29970.0 secs   av.it.:  18.8
      thresh= 0.396E-07 alpha_mix =  0.700 |ddv_scf|^2 =  0.913E-13
 
     Pert. #  1: Fermi energy shift (Ry) =     0.1610E+68    -0.4567E+47

      iter #  11 total cpu time : 30108.3 secs   av.it.:  18.0
      thresh= 0.302E-07 alpha_mix =  0.700 |ddv_scf|^2 =  0.303E-13
 
     Pert. #  1: Fermi energy shift (Ry) =     0.1603E+68    -0.4567E+47

      iter #  12 total cpu time : 30250.2 secs   av.it.:  18.8
      thresh= 0.174E-07 alpha_mix =  0.700 |ddv_scf|^2 =  0.181E-13
 
     Pert. #  1: Fermi energy shift (Ry) =     0.1607E+68    -0.4567E+47

      iter #  13 total cpu time : 30390.1 secs   av.it.:  18.0
      thresh= 0.135E-07 alpha_mix =  0.700 |ddv_scf|^2 =  0.154E-14

     End of self-consistent calculation

     Convergence has been achieved 


     Representation # 17 mode #  17

     Self-consistent Calculation
 
     Pert. #  1: Fermi energy shift (Ry) =     0.3059E+70    -0.1169E+50

      iter #   1 total cpu time : 30610.2 secs   av.it.:   6.5
      thresh= 0.100E-01 alpha_mix =  0.700 |ddv_scf|^2 =  0.168E-06
 
     Pert. #  1: Fermi energy shift (Ry) =    -0.1306E+69    -0.3654E+48

      iter #   2 total cpu time : 30754.8 secs   av.it.:  19.2
      thresh= 0.410E-04 alpha_mix =  0.700 |ddv_scf|^2 =  0.639E-06
 
     Pert. #  1: Fermi energy shift (Ry) =    -0.8734E+67    -0.1462E+49

      iter #   3 total cpu time : 30884.6 secs   av.it.:  17.5
      thresh= 0.799E-04 alpha_mix =  0.700 |ddv_scf|^2 =  0.256E-07
 
     Pert. #  1: Fermi energy shift (Ry) =     0.1135E+66    -0.9134E+47

      iter #   4 total cpu time : 31021.0 secs   av.it.:  18.2
      thresh= 0.160E-04 alpha_mix =  0.700 |ddv_scf|^2 =  0.155E-08
 
     Pert. #  1: Fermi energy shift (Ry) =     0.3027E+67    -0.3654E+48

      iter #   5 total cpu time : 31158.3 secs   av.it.:  18.0
      thresh= 0.394E-05 alpha_mix =  0.700 |ddv_scf|^2 =  0.401E-09
 
     Pert. #  1: Fermi energy shift (Ry) =     0.7338E+67    -0.3654E+48

      iter #   6 total cpu time : 31290.2 secs   av.it.:  18.0
      thresh= 0.200E-05 alpha_mix =  0.700 |ddv_scf|^2 =  0.203E-10
 
     Pert. #  1: Fermi energy shift (Ry) =     0.7203E+67    -0.3654E+48

      iter #   7 total cpu time : 31426.4 secs   av.it.:  18.2
      thresh= 0.451E-06 alpha_mix =  0.700 |ddv_scf|^2 =  0.213E-11
 
     Pert. #  1: Fermi energy shift (Ry) =     0.7315E+67    -0.3654E+48

      iter #   8 total cpu time : 31561.2 secs   av.it.:  19.0
      thresh= 0.146E-06 alpha_mix =  0.700 |ddv_scf|^2 =  0.179E-11
 
     Pert. #  1: Fermi energy shift (Ry) =     0.7033E+67    -0.3654E+48

      iter #   9 total cpu time : 31700.5 secs   av.it.:  17.2
      thresh= 0.134E-06 alpha_mix =  0.700 |ddv_scf|^2 =  0.616E-13
 
     Pert. #  1: Fermi energy shift (Ry) =     0.7140E+67    -0.3654E+48

      iter #  10 total cpu time : 31839.8 secs   av.it.:  19.0
      thresh= 0.248E-07 alpha_mix =  0.700 |ddv_scf|^2 =  0.671E-13
 
     Pert. #  1: Fermi energy shift (Ry) =     0.7103E+67    -0.3654E+48

      iter #  11 total cpu time : 31969.4 secs   av.it.:  18.0
      thresh= 0.259E-07 alpha_mix =  0.700 |ddv_scf|^2 =  0.649E-14

     End of self-consistent calculation

     Convergence has been achieved 


     Representation # 18 mode #  18

     Self-consistent Calculation
 
     Pert. #  1: Fermi energy shift (Ry) =    -0.6964E+69    -0.7483E+51

      iter #   1 total cpu time : 32202.3 secs   av.it.:   7.0
      thresh= 0.100E-01 alpha_mix =  0.700 |ddv_scf|^2 =  0.652E-06
 
     Pert. #  1: Fermi energy shift (Ry) =    -0.1905E+67    -0.2923E+49

      iter #   2 total cpu time : 32351.0 secs   av.it.:  19.0
      thresh= 0.808E-04 alpha_mix =  0.700 |ddv_scf|^2 =  0.249E-05
 
     Pert. #  1: Fermi energy shift (Ry) =     0.1632E+68    -0.8769E+49

      iter #   3 total cpu time : 32479.8 secs   av.it.:  17.0
      thresh= 0.158E-03 alpha_mix =  0.700 |ddv_scf|^2 =  0.129E-06
 
     Pert. #  1: Fermi energy shift (Ry) =    -0.1134E+68    -0.2192E+49

      iter #   4 total cpu time : 32614.8 secs   av.it.:  17.0
      thresh= 0.359E-04 alpha_mix =  0.700 |ddv_scf|^2 =  0.115E-07
 
     Pert. #  1: Fermi energy shift (Ry) =    -0.1276E+68    -0.4567E+48

      iter #   5 total cpu time : 32748.5 secs   av.it.:  17.2
      thresh= 0.107E-04 alpha_mix =  0.700 |ddv_scf|^2 =  0.382E-09
 
     Pert. #  1: Fermi energy shift (Ry) =    -0.9872E+67    -0.9134E+48

      iter #   6 total cpu time : 32892.4 secs   av.it.:  18.0
      thresh= 0.195E-05 alpha_mix =  0.700 |ddv_scf|^2 =  0.557E-10
 
     Pert. #  1: Fermi energy shift (Ry) =    -0.1398E+68    -0.5481E+48

      iter #   7 total cpu time : 33033.6 secs   av.it.:  19.0
      thresh= 0.746E-06 alpha_mix =  0.700 |ddv_scf|^2 =  0.471E-10
 
     Pert. #  1: Fermi energy shift (Ry) =    -0.1245E+68    -0.7308E+48

      iter #   8 total cpu time : 33168.8 secs   av.it.:  18.0
      thresh= 0.687E-06 alpha_mix =  0.700 |ddv_scf|^2 =  0.221E-11
 
     Pert. #  1: Fermi energy shift (Ry) =    -0.1202E+68    -0.7308E+48

      iter #   9 total cpu time : 33306.6 secs   av.it.:  18.8
      thresh= 0.149E-06 alpha_mix =  0.700 |ddv_scf|^2 =  0.129E-11
 
     Pert. #  1: Fermi energy shift (Ry) =    -0.1196E+68    -0.7308E+48

      iter #  10 total cpu time : 33450.2 secs   av.it.:  18.8
      thresh= 0.113E-06 alpha_mix =  0.700 |ddv_scf|^2 =  0.936E-12
 
     Pert. #  1: Fermi energy shift (Ry) =    -0.1195E+68    -0.7308E+48

      iter #  11 total cpu time : 33593.5 secs   av.it.:  18.0
      thresh= 0.967E-07 alpha_mix =  0.700 |ddv_scf|^2 =  0.609E-12
 
     Pert. #  1: Fermi energy shift (Ry) =    -0.1198E+68    -0.7308E+48

      iter #  12 total cpu time : 33724.0 secs   av.it.:  17.2
      thresh= 0.780E-07 alpha_mix =  0.700 |ddv_scf|^2 =  0.483E-13
 
     Pert. #  1: Fermi energy shift (Ry) =    -0.1197E+68    -0.7308E+48

      iter #  13 total cpu time : 33860.8 secs   av.it.:  17.2
      thresh= 0.220E-07 alpha_mix =  0.700 |ddv_scf|^2 =  0.673E-14

     End of self-consistent calculation

     Convergence has been achieved 


     Representation # 19 mode #  19

     Self-consistent Calculation
 
     Pert. #  1: Fermi energy shift (Ry) =    -0.4133E+70    -0.4677E+51

      iter #   1 total cpu time : 34072.4 secs   av.it.:   6.0
      thresh= 0.100E-01 alpha_mix =  0.700 |ddv_scf|^2 =  0.128E-06
 
     Pert. #  1: Fermi energy shift (Ry) =     0.6662E+68    -0.1827E+48

      iter #   2 total cpu time : 34214.0 secs   av.it.:  19.0
      thresh= 0.358E-04 alpha_mix =  0.700 |ddv_scf|^2 =  0.248E-06
 
     Pert. #  1: Fermi energy shift (Ry) =    -0.2945E+68     0.7308E+48

      iter #   3 total cpu time : 34344.7 secs   av.it.:  18.0
      thresh= 0.498E-04 alpha_mix =  0.700 |ddv_scf|^2 =  0.470E-07
 
     Pert. #  1: Fermi energy shift (Ry) =    -0.6343E+67     0.5846E+49

      iter #   4 total cpu time : 34476.8 secs   av.it.:  17.8
      thresh= 0.217E-04 alpha_mix =  0.700 |ddv_scf|^2 =  0.218E-08
 
     Pert. #  1: Fermi energy shift (Ry) =    -0.7805E+67     0.5481E+48

      iter #   5 total cpu time : 34604.5 secs   av.it.:  18.0
      thresh= 0.467E-05 alpha_mix =  0.700 |ddv_scf|^2 =  0.612E-09
 
     Pert. #  1: Fermi energy shift (Ry) =    -0.8551E+67     0.5481E+48

      iter #   6 total cpu time : 34734.8 secs   av.it.:  18.0
      thresh= 0.247E-05 alpha_mix =  0.700 |ddv_scf|^2 =  0.295E-10
 
     Pert. #  1: Fermi energy shift (Ry) =    -0.8159E+67     0.4567E+48

      iter #   7 total cpu time : 34872.7 secs   av.it.:  18.8
      thresh= 0.543E-06 alpha_mix =  0.700 |ddv_scf|^2 =  0.734E-11
 
     Pert. #  1: Fermi energy shift (Ry) =    -0.8282E+67     0.4567E+48

      iter #   8 total cpu time : 35013.7 secs   av.it.:  18.0
      thresh= 0.271E-06 alpha_mix =  0.700 |ddv_scf|^2 =  0.133E-11
 
     Pert. #  1: Fermi energy shift (Ry) =    -0.8270E+67     0.4567E+48

      iter #   9 total cpu time : 35160.1 secs   av.it.:  18.0
      thresh= 0.115E-06 alpha_mix =  0.700 |ddv_scf|^2 =  0.123E-12
 
     Pert. #  1: Fermi energy shift (Ry) =    -0.8414E+67     0.4567E+48

      iter #  10 total cpu time : 35317.4 secs   av.it.:  19.2
      thresh= 0.351E-07 alpha_mix =  0.700 |ddv_scf|^2 =  0.244E-12
 
     Pert. #  1: Fermi energy shift (Ry) =    -0.8338E+67     0.4567E+48

      iter #  11 total cpu time : 35448.6 secs   av.it.:  17.8
      thresh= 0.494E-07 alpha_mix =  0.700 |ddv_scf|^2 =  0.722E-14

     End of self-consistent calculation

     Convergence has been achieved 


     Representation # 20 mode #  20

     Self-consistent Calculation
 
     Pert. #  1: Fermi energy shift (Ry) =    -0.1464E+70    -0.4677E+50

      iter #   1 total cpu time : 35658.8 secs   av.it.:   6.0
      thresh= 0.100E-01 alpha_mix =  0.700 |ddv_scf|^2 =  0.987E-07
 
     Pert. #  1: Fermi energy shift (Ry) =     0.6292E+67     0.9134E+47

      iter #   2 total cpu time : 35800.7 secs   av.it.:  18.5
      thresh= 0.314E-04 alpha_mix =  0.700 |ddv_scf|^2 =  0.130E-06
 
     Pert. #  1: Fermi energy shift (Ry) =    -0.8054E+67     0.3654E+48

      iter #   3 total cpu time : 35930.3 secs   av.it.:  18.0
      thresh= 0.360E-04 alpha_mix =  0.700 |ddv_scf|^2 =  0.452E-07
 
     Pert. #  1: Fermi energy shift (Ry) =     0.8806E+67    -0.4567E+47

      iter #   4 total cpu time : 36056.1 secs   av.it.:  17.0
      thresh= 0.213E-04 alpha_mix =  0.700 |ddv_scf|^2 =  0.132E-08
 
     Pert. #  1: Fermi energy shift (Ry) =    -0.5767E+67    -0.9134E+47

      iter #   5 total cpu time : 36191.3 secs   av.it.:  18.0
      thresh= 0.363E-05 alpha_mix =  0.700 |ddv_scf|^2 =  0.524E-09
 
     Pert. #  1: Fermi energy shift (Ry) =    -0.2024E+67    -0.1827E+48

      iter #   6 total cpu time : 36316.4 secs   av.it.:  17.0
      thresh= 0.229E-05 alpha_mix =  0.700 |ddv_scf|^2 =  0.118E-10
 
     Pert. #  1: Fermi energy shift (Ry) =    -0.2236E+67    -0.9134E+47

      iter #   7 total cpu time : 36451.2 secs   av.it.:  18.0
      thresh= 0.344E-06 alpha_mix =  0.700 |ddv_scf|^2 =  0.454E-11
 
     Pert. #  1: Fermi energy shift (Ry) =    -0.1961E+67    -0.9134E+47

      iter #   8 total cpu time : 36594.7 secs   av.it.:  18.2
      thresh= 0.213E-06 alpha_mix =  0.700 |ddv_scf|^2 =  0.210E-11
 
     Pert. #  1: Fermi energy shift (Ry) =    -0.2024E+67    -0.9134E+47

      iter #   9 total cpu time : 36719.4 secs   av.it.:  17.8
      thresh= 0.145E-06 alpha_mix =  0.700 |ddv_scf|^2 =  0.152E-12
 
     Pert. #  1: Fermi energy shift (Ry) =    -0.2049E+67    -0.9134E+47

      iter #  10 total cpu time : 36866.7 secs   av.it.:  18.8
      thresh= 0.390E-07 alpha_mix =  0.700 |ddv_scf|^2 =  0.205E-12
 
     Pert. #  1: Fermi energy shift (Ry) =    -0.1979E+67    -0.9134E+47

      iter #  11 total cpu time : 36992.5 secs   av.it.:  17.2
      thresh= 0.453E-07 alpha_mix =  0.700 |ddv_scf|^2 =  0.438E-13
 
     Pert. #  1: Fermi energy shift (Ry) =    -0.2019E+67    -0.9134E+47

      iter #  12 total cpu time : 37134.2 secs   av.it.:  18.0
      thresh= 0.209E-07 alpha_mix =  0.700 |ddv_scf|^2 =  0.232E-13
 
     Pert. #  1: Fermi energy shift (Ry) =    -0.2012E+67    -0.9134E+47

      iter #  13 total cpu time : 37269.3 secs   av.it.:  17.0
      thresh= 0.152E-07 alpha_mix =  0.700 |ddv_scf|^2 =  0.158E-14

     End of self-consistent calculation

     Convergence has been achieved 


     Representation # 21 mode #  21

     Self-consistent Calculation
 
     Pert. #  1: Fermi energy shift (Ry) =    -0.1785E+70     0.1403E+51

      iter #   1 total cpu time : 37488.3 secs   av.it.:   6.0
      thresh= 0.100E-01 alpha_mix =  0.700 |ddv_scf|^2 =  0.126E-06
 
     Pert. #  1: Fermi energy shift (Ry) =     0.8233E+68     0.9134E+48

      iter #   2 total cpu time : 37642.3 secs   av.it.:  19.0
      thresh= 0.355E-04 alpha_mix =  0.700 |ddv_scf|^2 =  0.220E-06
 
     Pert. #  1: Fermi energy shift (Ry) =    -0.5673E+68     0.1827E+49

      iter #   3 total cpu time : 37781.0 secs   av.it.:  18.0
      thresh= 0.469E-04 alpha_mix =  0.700 |ddv_scf|^2 =  0.418E-07
 
     Pert. #  1: Fermi energy shift (Ry) =     0.6361E+67     0.3654E+48

      iter #   4 total cpu time : 37917.1 secs   av.it.:  18.0
      thresh= 0.204E-04 alpha_mix =  0.700 |ddv_scf|^2 =  0.173E-08
 
     Pert. #  1: Fermi energy shift (Ry) =    -0.2486E+67     0.4567E+48

      iter #   5 total cpu time : 38056.6 secs   av.it.:  18.5
      thresh= 0.416E-05 alpha_mix =  0.700 |ddv_scf|^2 =  0.317E-09
 
     Pert. #  1: Fermi energy shift (Ry) =    -0.1798E+67     0.3654E+48

      iter #   6 total cpu time : 38195.0 secs   av.it.:  18.0
      thresh= 0.178E-05 alpha_mix =  0.700 |ddv_scf|^2 =  0.280E-10
 
     Pert. #  1: Fermi energy shift (Ry) =    -0.9469E+66     0.3654E+48

      iter #   7 total cpu time : 38340.8 secs   av.it.:  18.5
      thresh= 0.529E-06 alpha_mix =  0.700 |ddv_scf|^2 =  0.289E-11
 
     Pert. #  1: Fermi energy shift (Ry) =    -0.8017E+66     0.3654E+48

      iter #   8 total cpu time : 38489.2 secs   av.it.:  19.0
      thresh= 0.170E-06 alpha_mix =  0.700 |ddv_scf|^2 =  0.207E-11
 
     Pert. #  1: Fermi energy shift (Ry) =    -0.8699E+66     0.3654E+48

      iter #   9 total cpu time : 38624.6 secs   av.it.:  18.0
      thresh= 0.144E-06 alpha_mix =  0.700 |ddv_scf|^2 =  0.704E-13
 
     Pert. #  1: Fermi energy shift (Ry) =    -0.9504E+66     0.3654E+48

      iter #  10 total cpu time : 38753.4 secs   av.it.:  19.0
      thresh= 0.265E-07 alpha_mix =  0.700 |ddv_scf|^2 =  0.743E-13
 
     Pert. #  1: Fermi energy shift (Ry) =    -0.8452E+66     0.3654E+48

      iter #  11 total cpu time : 38891.3 secs   av.it.:  18.8
      thresh= 0.272E-07 alpha_mix =  0.700 |ddv_scf|^2 =  0.448E-13
 
     Pert. #  1: Fermi energy shift (Ry) =    -0.8846E+66     0.3654E+48

      iter #  12 total cpu time : 39030.1 secs   av.it.:  18.0
      thresh= 0.212E-07 alpha_mix =  0.700 |ddv_scf|^2 =  0.171E-13
 
     Pert. #  1: Fermi energy shift (Ry) =    -0.8946E+66     0.3654E+48

      iter #  13 total cpu time : 39171.8 secs   av.it.:  18.0
      thresh= 0.131E-07 alpha_mix =  0.700 |ddv_scf|^2 =  0.190E-14

     End of self-consistent calculation

     Convergence has been achieved 


     Representation # 22 mode #  22

     Self-consistent Calculation
 
     Pert. #  1: Fermi energy shift (Ry) =    -0.3194E+69     0.1169E+51

      iter #   1 total cpu time : 39391.2 secs   av.it.:   7.0
      thresh= 0.100E-01 alpha_mix =  0.700 |ddv_scf|^2 =  0.303E-06
 
     Pert. #  1: Fermi energy shift (Ry) =    -0.7288E+68    -0.2192E+49

      iter #   2 total cpu time : 39539.0 secs   av.it.:  19.0
      thresh= 0.550E-04 alpha_mix =  0.700 |ddv_scf|^2 =  0.139E-05
 
     Pert. #  1: Fermi energy shift (Ry) =     0.3340E+68    -0.5846E+49

      iter #   3 total cpu time : 39674.1 secs   av.it.:  17.0
      thresh= 0.118E-03 alpha_mix =  0.700 |ddv_scf|^2 =  0.457E-07
 
     Pert. #  1: Fermi energy shift (Ry) =     0.1258E+68    -0.1096E+49

      iter #   4 total cpu time : 39805.6 secs   av.it.:  17.0
      thresh= 0.214E-04 alpha_mix =  0.700 |ddv_scf|^2 =  0.175E-08
 
     Pert. #  1: Fermi energy shift (Ry) =     0.1246E+68    -0.1096E+49

      iter #   5 total cpu time : 39945.7 secs   av.it.:  17.8
      thresh= 0.419E-05 alpha_mix =  0.700 |ddv_scf|^2 =  0.209E-09
 
     Pert. #  1: Fermi energy shift (Ry) =     0.1178E+68    -0.1096E+49

      iter #   6 total cpu time : 40083.9 secs   av.it.:  17.0
      thresh= 0.145E-05 alpha_mix =  0.700 |ddv_scf|^2 =  0.367E-10
 
     Pert. #  1: Fermi energy shift (Ry) =     0.1202E+68    -0.1096E+49

      iter #   7 total cpu time : 40228.0 secs   av.it.:  18.0
      thresh= 0.606E-06 alpha_mix =  0.700 |ddv_scf|^2 =  0.861E-11
 
     Pert. #  1: Fermi energy shift (Ry) =     0.1202E+68    -0.1096E+49

      iter #   8 total cpu time : 40372.1 secs   av.it.:  18.0
      thresh= 0.293E-06 alpha_mix =  0.700 |ddv_scf|^2 =  0.230E-11
 
     Pert. #  1: Fermi energy shift (Ry) =     0.1204E+68    -0.1096E+49

      iter #   9 total cpu time : 40506.3 secs   av.it.:  18.0
      thresh= 0.152E-06 alpha_mix =  0.700 |ddv_scf|^2 =  0.433E-12
 
     Pert. #  1: Fermi energy shift (Ry) =     0.1204E+68    -0.1096E+49

      iter #  10 total cpu time : 40645.3 secs   av.it.:  18.0
      thresh= 0.658E-07 alpha_mix =  0.700 |ddv_scf|^2 =  0.414E-12
 
     Pert. #  1: Fermi energy shift (Ry) =     0.1198E+68    -0.1096E+49

      iter #  11 total cpu time : 40777.7 secs   av.it.:  17.2
      thresh= 0.643E-07 alpha_mix =  0.700 |ddv_scf|^2 =  0.710E-13
 
     Pert. #  1: Fermi energy shift (Ry) =     0.1201E+68    -0.1096E+49

      iter #  12 total cpu time : 40918.5 secs   av.it.:  18.0
      thresh= 0.266E-07 alpha_mix =  0.700 |ddv_scf|^2 =  0.160E-13
 
     Pert. #  1: Fermi energy shift (Ry) =     0.1199E+68    -0.1096E+49

      iter #  13 total cpu time : 41054.6 secs   av.it.:  18.0
      thresh= 0.126E-07 alpha_mix =  0.700 |ddv_scf|^2 =  0.476E-14

     End of self-consistent calculation

     Convergence has been achieved 


     Representation # 23 mode #  23

     Self-consistent Calculation
 
     Pert. #  1: Fermi energy shift (Ry) =     0.1120E+70     0.9354E+50

      iter #   1 total cpu time : 41263.8 secs   av.it.:   6.0
      thresh= 0.100E-01 alpha_mix =  0.700 |ddv_scf|^2 =  0.115E-06
 
     Pert. #  1: Fermi energy shift (Ry) =    -0.5439E+67    -0.1827E+48

      iter #   2 total cpu time : 41402.4 secs   av.it.:  19.0
      thresh= 0.339E-04 alpha_mix =  0.700 |ddv_scf|^2 =  0.193E-06
 
     Pert. #  1: Fermi energy shift (Ry) =     0.2608E+67    -0.3654E+48

      iter #   3 total cpu time : 41542.7 secs   av.it.:  17.5
      thresh= 0.439E-04 alpha_mix =  0.700 |ddv_scf|^2 =  0.505E-07
 
     Pert. #  1: Fermi energy shift (Ry) =    -0.1623E+68     0.1827E+48

      iter #   4 total cpu time : 41672.5 secs   av.it.:  17.0
      thresh= 0.225E-04 alpha_mix =  0.700 |ddv_scf|^2 =  0.173E-08
 
     Pert. #  1: Fermi energy shift (Ry) =    -0.1639E+68     0.3654E+48

      iter #   5 total cpu time : 41813.0 secs   av.it.:  18.0
      thresh= 0.415E-05 alpha_mix =  0.700 |ddv_scf|^2 =  0.450E-09
 
     Pert. #  1: Fermi energy shift (Ry) =    -0.9649E+67     0.1827E+48

      iter #   6 total cpu time : 41951.1 secs   av.it.:  18.0
      thresh= 0.212E-05 alpha_mix =  0.700 |ddv_scf|^2 =  0.211E-10
 
     Pert. #  1: Fermi energy shift (Ry) =    -0.1188E+68     0.3654E+48

      iter #   7 total cpu time : 42086.4 secs   av.it.:  18.0
      thresh= 0.459E-06 alpha_mix =  0.700 |ddv_scf|^2 =  0.323E-11
 
     Pert. #  1: Fermi energy shift (Ry) =    -0.1099E+68     0.3654E+48

      iter #   8 total cpu time : 42234.7 secs   av.it.:  19.0
      thresh= 0.180E-06 alpha_mix =  0.700 |ddv_scf|^2 =  0.290E-11
 
     Pert. #  1: Fermi energy shift (Ry) =    -0.1122E+68     0.3654E+48

      iter #   9 total cpu time : 42373.9 secs   av.it.:  18.0
      thresh= 0.170E-06 alpha_mix =  0.700 |ddv_scf|^2 =  0.129E-12
 
     Pert. #  1: Fermi energy shift (Ry) =    -0.1126E+68     0.3654E+48

      iter #  10 total cpu time : 42515.4 secs   av.it.:  18.8
      thresh= 0.359E-07 alpha_mix =  0.700 |ddv_scf|^2 =  0.137E-12
 
     Pert. #  1: Fermi energy shift (Ry) =    -0.1129E+68     0.3654E+48

      iter #  11 total cpu time : 42651.7 secs   av.it.:  17.2
      thresh= 0.370E-07 alpha_mix =  0.700 |ddv_scf|^2 =  0.244E-13
 
     Pert. #  1: Fermi energy shift (Ry) =    -0.1133E+68     0.3654E+48

      iter #  12 total cpu time : 42796.1 secs   av.it.:  19.0
      thresh= 0.156E-07 alpha_mix =  0.700 |ddv_scf|^2 =  0.234E-13
 
     Pert. #  1: Fermi energy shift (Ry) =    -0.1128E+68     0.3654E+48

      iter #  13 total cpu time : 42935.3 secs   av.it.:  18.0
      thresh= 0.153E-07 alpha_mix =  0.700 |ddv_scf|^2 =  0.277E-14

     End of self-consistent calculation

     Convergence has been achieved 


     Representation # 24 mode #  24

     Self-consistent Calculation
 
     Pert. #  1: Fermi energy shift (Ry) =     0.3440E+70     0.1497E+52

      iter #   1 total cpu time : 43151.5 secs   av.it.:   6.0
      thresh= 0.100E-01 alpha_mix =  0.700 |ddv_scf|^2 =  0.185E-06
 
     Pert. #  1: Fermi energy shift (Ry) =    -0.9767E+68     0.1827E+48

      iter #   2 total cpu time : 43306.8 secs   av.it.:  19.0
      thresh= 0.430E-04 alpha_mix =  0.700 |ddv_scf|^2 =  0.472E-06
 
     Pert. #  1: Fermi energy shift (Ry) =     0.3766E+68     0.1827E+48

[...]
     omega(29) =       3.958664 [THz] =     132.046821 [cm-1]
     omega(30) =       4.036831 [THz] =     134.654196 [cm-1]
     omega(31) =       4.117441 [THz] =     137.343032 [cm-1]
     omega(32) =       4.206802 [THz] =     140.323798 [cm-1]
     omega(33) =       4.247480 [THz] =     141.680670 [cm-1]
     omega(34) =       4.303264 [THz] =     143.541425 [cm-1]
     omega(35) =       4.377062 [THz] =     146.003070 [cm-1]
     omega(36) =       4.428569 [THz] =     147.721173 [cm-1]
     omega(37) =       4.450863 [THz] =     148.464812 [cm-1]
     omega(38) =       4.752181 [THz] =     158.515683 [cm-1]
     omega(39) =       4.796821 [THz] =     160.004722 [cm-1]
     omega(40) =       4.936578 [THz] =     164.666515 [cm-1]
     omega(41) =       4.972534 [THz] =     165.865894 [cm-1]
     omega(42) =       5.036776 [THz] =     168.008763 [cm-1]
     omega(43) =       5.037437 [THz] =     168.030824 [cm-1]
     omega(44) =       5.215816 [THz] =     173.980906 [cm-1]
     omega(45) =       5.282097 [THz] =     176.191789 [cm-1]
     omega(46) =       5.333168 [THz] =     177.895348 [cm-1]
     omega(47) =       5.369909 [THz] =     179.120899 [cm-1]
     omega(48) =       5.559463 [THz] =     185.443711 [cm-1]
     omega(49) =       5.560958 [THz] =     185.493597 [cm-1]
     omega(50) =       5.727074 [THz] =     191.034642 [cm-1]
     omega(51) =       5.962618 [THz] =     198.891541 [cm-1]
     omega(52) =       6.014067 [THz] =     200.607671 [cm-1]
     omega(53) =       6.301538 [THz] =     210.196688 [cm-1]
     omega(54) =       6.669453 [THz] =     222.469000 [cm-1]
     omega(55) =       6.735744 [THz] =     224.680230 [cm-1]
     omega(56) =       6.740604 [THz] =     224.842358 [cm-1]
     omega(57) =       6.748244 [THz] =     225.097194 [cm-1]
     omega(58) =       6.788200 [THz] =     226.429967 [cm-1]
     omega(59) =       6.931788 [THz] =     231.219548 [cm-1]
     omega(60) =       7.209707 [THz] =     240.489931 [cm-1]
     omega(61) =       8.153206 [THz] =     271.961677 [cm-1]
     omega(62) =       8.280843 [THz] =     276.219182 [cm-1]
     omega(63) =       8.520212 [THz] =     284.203677 [cm-1]
     omega(64) =       8.579467 [THz] =     286.180208 [cm-1]
     omega(65) =       8.585245 [THz] =     286.372951 [cm-1]
     omega(66) =       8.618372 [THz] =     287.477961 [cm-1]
     omega(67) =       8.738289 [THz] =     291.477948 [cm-1]
     omega(68) =       8.767080 [THz] =     292.438308 [cm-1]
     omega(69) =       8.774743 [THz] =     292.693934 [cm-1]
     omega(70) =       8.774907 [THz] =     292.699381 [cm-1]
     omega(71) =       8.864025 [THz] =     295.672055 [cm-1]
     omega(72) =       9.154491 [THz] =     305.360962 [cm-1]
     omega(73) =       9.257398 [THz] =     308.793570 [cm-1]
     omega(74) =       9.295419 [THz] =     310.061796 [cm-1]
     omega(75) =       9.366716 [THz] =     312.440013 [cm-1]
     omega(76) =       9.405828 [THz] =     313.744641 [cm-1]
     omega(77) =       9.501018 [THz] =     316.919845 [cm-1]
     omega(78) =       9.544473 [THz] =     318.369345 [cm-1]
     omega(79) =       9.564555 [THz] =     319.039229 [cm-1]
     omega(80) =       9.578871 [THz] =     319.516749 [cm-1]
     omega(81) =       9.687178 [THz] =     323.129488 [cm-1]
     omega(82) =       9.711011 [THz] =     323.924445 [cm-1]
     omega(83) =       9.879077 [THz] =     329.530531 [cm-1]
     omega(84) =       9.933404 [THz] =     331.342696 [cm-1]
     omega(85) =      10.006306 [THz] =     333.774431 [cm-1]
     omega(86) =      10.024718 [THz] =     334.388612 [cm-1]
     omega(87) =      10.034018 [THz] =     334.698813 [cm-1]
     omega(88) =      10.183271 [THz] =     339.677359 [cm-1]
     omega(89) =      10.205770 [THz] =     340.427857 [cm-1]
     omega(90) =      10.313322 [THz] =     344.015389 [cm-1]
     omega(91) =      10.439718 [THz] =     348.231508 [cm-1]
     omega(92) =      10.457193 [THz] =     348.814399 [cm-1]
     omega(93) =      10.755916 [THz] =     358.778729 [cm-1]
     omega(94) =      10.763460 [THz] =     359.030373 [cm-1]
     omega(95) =      10.948905 [THz] =     365.216169 [cm-1]
     omega(96) =      10.977802 [THz] =     366.180060 [cm-1]
     omega(97) =      11.113912 [THz] =     370.720197 [cm-1]
     omega(98) =      11.364473 [THz] =     379.077999 [cm-1]
     omega(99) =      11.495707 [THz] =     383.455521 [cm-1]
     omega(**) =      11.669321 [THz] =     389.246663 [cm-1]
     omega(**) =      23.430825 [THz] =     781.568186 [cm-1]
     omega(**) =      23.508326 [THz] =     784.153350 [cm-1]
     omega(**) =      23.609010 [THz] =     787.511791 [cm-1]
     omega(**) =      23.652144 [THz] =     788.950611 [cm-1]
     omega(**) =      24.067924 [THz] =     802.819526 [cm-1]
     omega(**) =      24.190964 [THz] =     806.923701 [cm-1]
     omega(**) =      24.374701 [THz] =     813.052497 [cm-1]
     omega(**) =      24.442863 [THz] =     815.326161 [cm-1]
     omega(**) =      24.488912 [THz] =     816.862186 [cm-1]
     omega(**) =      24.496420 [THz] =     817.112630 [cm-1]
     omega(**) =      24.511796 [THz] =     817.625510 [cm-1]
     omega(**) =      24.742304 [THz] =     825.314429 [cm-1]
     omega(**) =      24.754435 [THz] =     825.719078 [cm-1]
     omega(**) =      24.809648 [THz] =     827.560775 [cm-1]
     omega(**) =      24.970919 [THz] =     832.940208 [cm-1]
     omega(**) =      25.015049 [THz] =     834.412225 [cm-1]
     omega(**) =      25.161479 [THz] =     839.296606 [cm-1]
     omega(**) =      25.184095 [THz] =     840.050972 [cm-1]
     omega(**) =      25.215934 [THz] =     841.113009 [cm-1]
     omega(**) =      25.232670 [THz] =     841.671286 [cm-1]
     omega(**) =      25.507715 [THz] =     850.845803 [cm-1]
     omega(**) =      27.830388 [THz] =     928.321835 [cm-1]
     omega(**) =      28.193397 [THz] =     940.430497 [cm-1]
     omega(**) =      28.241836 [THz] =     942.046241 [cm-1]
     omega(**) =      28.256208 [THz] =     942.525655 [cm-1]
     omega(**) =      28.356557 [THz] =     945.872928 [cm-1]
     omega(**) =      28.446879 [THz] =     948.885741 [cm-1]
     omega(**) =      28.564890 [THz] =     952.822155 [cm-1]
     omega(**) =      29.129402 [THz] =     971.652276 [cm-1]
     omega(**) =      29.349818 [THz] =     979.004544 [cm-1]
     omega(**) =      29.579625 [THz] =     986.670096 [cm-1]
     omega(**) =      29.979834 [THz] =    1000.019626 [cm-1]
 **************************************************************************

     Mode symmetry, C_2h (2/m)  point group:

     omega(  1 -  1) =          9.2  [cm-1]   --> A_u             I  
     omega(  2 -  2) =         12.0  [cm-1]   --> B_u             I  
     omega(  3 -  3) =         13.9  [cm-1]   --> B_u             I  
     omega(  4 -  4) =         38.8  [cm-1]   --> A_u             I  
     omega(  5 -  5) =         41.5  [cm-1]   --> A_g             R  
     omega(  6 -  6) =         52.9  [cm-1]   --> B_g             R  
     omega(  7 -  7) =         57.3  [cm-1]   --> A_g             R  
     omega(  8 -  8) =         62.6  [cm-1]   --> B_u             I  
     omega(  9 -  9) =         68.4  [cm-1]   --> A_u             I  
     omega( 10 - 10) =         69.1  [cm-1]   --> B_g             R  
     omega( 11 - 11) =         69.8  [cm-1]   --> B_u             I  
     omega( 12 - 12) =         70.6  [cm-1]   --> A_g             R  
     omega( 13 - 13) =         79.6  [cm-1]   --> A_g             R  
     omega( 14 - 14) =         80.6  [cm-1]   --> B_g             R  
     omega( 15 - 15) =         83.7  [cm-1]   --> A_g             R  
     omega( 16 - 16) =         89.0  [cm-1]   --> A_u             I  
     omega( 17 - 17) =         90.8  [cm-1]   --> A_u             I  
     omega( 18 - 18) =         93.9  [cm-1]   --> B_g             R  
     omega( 19 - 19) =        101.9  [cm-1]   --> A_g             R  
     omega( 20 - 20) =        102.1  [cm-1]   --> B_u             I  
     omega( 21 - 21) =        102.3  [cm-1]   --> B_g             R  
     omega( 22 - 22) =        114.9  [cm-1]   --> B_u             I  
     omega( 23 - 23) =        116.0  [cm-1]   --> B_g             R  
     omega( 24 - 24) =        117.2  [cm-1]   --> A_u             I  
     omega( 25 - 25) =        123.2  [cm-1]   --> A_g             R  
     omega( 26 - 26) =        127.8  [cm-1]   --> A_u             I  
     omega( 27 - 27) =        129.7  [cm-1]   --> B_u             I  
     omega( 28 - 28) =        130.2  [cm-1]   --> A_g             R  
     omega( 29 - 29) =        132.0  [cm-1]   --> B_g             R  
     omega( 30 - 30) =        134.7  [cm-1]   --> B_g             R  
     omega( 31 - 31) =        137.3  [cm-1]   --> A_u             I  
     omega( 32 - 32) =        140.3  [cm-1]   --> B_u             I  
     omega( 33 - 33) =        141.7  [cm-1]   --> A_g             R  
     omega( 34 - 34) =        143.5  [cm-1]   --> B_g             R  
     omega( 35 - 35) =        146.0  [cm-1]   --> A_g             R  
     omega( 36 - 36) =        147.7  [cm-1]   --> A_u             I  
     omega( 37 - 37) =        148.5  [cm-1]   --> B_g             R  
     omega( 38 - 38) =        158.5  [cm-1]   --> A_u             I  
     omega( 39 - 39) =        160.0  [cm-1]   --> B_u             I  
     omega( 40 - 40) =        164.7  [cm-1]   --> B_g             R  
     omega( 41 - 41) =        165.9  [cm-1]   --> B_u             I  
     omega( 42 - 43) =        168.0  [cm-1]   --> B_g             R  
     omega( 42 - 43) =        168.0  [cm-1]   --> B_u             I  
     omega( 44 - 44) =        174.0  [cm-1]   --> A_g             R  
     omega( 45 - 45) =        176.2  [cm-1]   --> B_u             I  
     omega( 46 - 46) =        177.9  [cm-1]   --> A_g             R  
     omega( 47 - 47) =        179.1  [cm-1]   --> A_u             I  
     omega( 48 - 49) =        185.4  [cm-1]   --> B_g             R  
     omega( 48 - 49) =        185.4  [cm-1]   --> A_u             I  
     omega( 50 - 50) =        191.0  [cm-1]   --> A_g             R  
     omega( 51 - 51) =        198.9  [cm-1]   --> A_u             I  
     omega( 52 - 52) =        200.6  [cm-1]   --> B_u             I  
     omega( 53 - 53) =        210.2  [cm-1]   --> A_g             R  
     omega( 54 - 54) =        222.5  [cm-1]   --> B_g             R  
     omega( 55 - 55) =        224.7  [cm-1]   --> A_u             I  
     omega( 56 - 56) =        224.8  [cm-1]   --> A_g             R  
     omega( 57 - 57) =        225.1  [cm-1]   --> B_g             R  
     omega( 58 - 58) =        226.4  [cm-1]   --> B_u             I  
     omega( 59 - 59) =        231.2  [cm-1]   --> B_u             I  
     omega( 60 - 60) =        240.5  [cm-1]   --> A_u             I  
     omega( 61 - 61) =        272.0  [cm-1]   --> A_u             I  
     omega( 62 - 62) =        276.2  [cm-1]   --> B_u             I  
     omega( 63 - 63) =        284.2  [cm-1]   --> B_u             I  
     omega( 64 - 64) =        286.2  [cm-1]   --> A_u             I  
     omega( 65 - 65) =        286.4  [cm-1]   --> A_g             R  
     omega( 66 - 66) =        287.5  [cm-1]   --> B_g             R  
     omega( 67 - 67) =        291.5  [cm-1]   --> A_g             R  
     omega( 68 - 68) =        292.4  [cm-1]   --> B_u             I  
     omega( 69 - 70) =        292.7  [cm-1]   --> A_g             R  
     omega( 69 - 70) =        292.7  [cm-1]   --> A_u             I  
     omega( 71 - 71) =        295.7  [cm-1]   --> B_g             R  
     omega( 72 - 72) =        305.4  [cm-1]   --> B_u             I  
     omega( 73 - 73) =        308.8  [cm-1]   --> A_u             I  
     omega( 74 - 74) =        310.1  [cm-1]   --> B_g             R  
     omega( 75 - 75) =        312.4  [cm-1]   --> B_u             I  
     omega( 76 - 76) =        313.7  [cm-1]   --> B_g             R  
     omega( 77 - 77) =        316.9  [cm-1]   --> A_u             I  
     omega( 78 - 78) =        318.4  [cm-1]   --> B_g             R  
     omega( 79 - 79) =        319.0  [cm-1]   --> A_g             R  
     omega( 80 - 80) =        319.5  [cm-1]   --> B_u             I  
     omega( 81 - 81) =        323.1  [cm-1]   --> A_g             R  
     omega( 82 - 82) =        323.9  [cm-1]   --> A_u             I  
     omega( 83 - 83) =        329.5  [cm-1]   --> B_u             I  
     omega( 84 - 84) =        331.3  [cm-1]   --> A_g             R  
     omega( 85 - 85) =        333.8  [cm-1]   --> B_g             R  
     omega( 86 - 86) =        334.4  [cm-1]   --> A_g             R  
     omega( 87 - 87) =        334.7  [cm-1]   --> A_u             I  
     omega( 88 - 88) =        339.7  [cm-1]   --> A_u             I  
     omega( 89 - 89) =        340.4  [cm-1]   --> B_g             R  
     omega( 90 - 90) =        344.0  [cm-1]   --> B_g             R  
     omega( 91 - 91) =        348.2  [cm-1]   --> A_g             R  
     omega( 92 - 92) =        348.8  [cm-1]   --> B_u             I  
     omega( 93 - 93) =        358.8  [cm-1]   --> A_g             R  
     omega( 94 - 94) =        359.0  [cm-1]   --> B_u             I  
     omega( 95 - 95) =        365.2  [cm-1]   --> B_g             R  
     omega( 96 - 96) =        366.2  [cm-1]   --> A_u             I  
     omega( 97 - 97) =        370.7  [cm-1]   --> A_g             R  
     omega( 98 - 98) =        379.1  [cm-1]   --> A_u             I  
     omega( 99 - 99) =        383.5  [cm-1]   --> B_u             I  
     omega(100 -100) =        389.2  [cm-1]   --> B_g             R  
     omega(101 -101) =        781.6  [cm-1]   --> A_g             R  
     omega(102 -102) =        784.2  [cm-1]   --> A_u             I  
     omega(103 -103) =        787.5  [cm-1]   --> B_g             R  
     omega(104 -104) =        789.0  [cm-1]   --> B_u             I  
     omega(105 -105) =        802.8  [cm-1]   --> A_g             R  
     omega(106 -106) =        806.9  [cm-1]   --> A_u             I  
     omega(107 -107) =        813.1  [cm-1]   --> B_g             R  
     omega(108 -108) =        815.3  [cm-1]   --> B_g             R  
     omega(109 -109) =        816.9  [cm-1]   --> B_u             I  
     omega(110 -110) =        817.1  [cm-1]   --> A_u             I  
     omega(111 -111) =        817.6  [cm-1]   --> A_g             R  
     omega(112 -112) =        825.3  [cm-1]   --> A_g             R  
     omega(113 -113) =        825.7  [cm-1]   --> B_u             I  
     omega(114 -114) =        827.6  [cm-1]   --> A_u             I  
     omega(115 -115) =        832.9  [cm-1]   --> B_g             R  
     omega(116 -116) =        834.4  [cm-1]   --> A_g             R  
     omega(117 -117) =        839.3  [cm-1]   --> B_g             R  
     omega(118 -118) =        840.1  [cm-1]   --> B_u             I  
     omega(119 -119) =        841.1  [cm-1]   --> A_u             I  
     omega(120 -120) =        841.7  [cm-1]   --> B_u             I  
     omega(121 -121) =        850.8  [cm-1]   --> A_g             R  
     omega(122 -122) =        928.3  [cm-1]   --> B_g             R  
     omega(123 -123) =        940.4  [cm-1]   --> B_u             I  
     omega(124 -124) =        942.0  [cm-1]   --> A_g             R  
     omega(125 -125) =        942.5  [cm-1]   --> A_u             I  
     omega(126 -126) =        945.9  [cm-1]   --> B_g             R  
     omega(127 -127) =        948.9  [cm-1]   --> A_u             I  
     omega(128 -128) =        952.8  [cm-1]   --> B_u             I  
     omega(129 -129) =        971.7  [cm-1]   --> A_g             R  
     omega(130 -130) =        979.0  [cm-1]   --> B_u             I  
     omega(131 -131) =        986.7  [cm-1]   --> B_g             R  
     omega(132 -132) =       1000.0  [cm-1]   --> A_u             I  

 **************************************************************************
 
     PHONON       :     2d   12h57m CPU        2d   20h42m WALL

     INITIALIZATION: 
     phq_setup    :      0.86s CPU      1.28s WALL (       1 calls)
     phq_init     :    679.12s CPU    689.25s WALL (       1 calls)
 
     phq_init     :    679.12s CPU    689.25s WALL (       1 calls)
     set_drhoc    :      0.29s CPU      0.29s WALL (       3 calls)
     init_vloc    :      0.05s CPU      0.05s WALL (       1 calls)
     init_us_1    :      0.60s CPU      3.11s WALL (       1 calls)
     newd         :      0.82s CPU      0.83s WALL (       1 calls)
     dvanqq       :     18.47s CPU     18.59s WALL (       1 calls)
     drho         :    639.27s CPU    648.59s WALL (       1 calls)
 
     DYNAMICAL MATRIX:
     dynmat0      :     17.54s CPU     18.06s WALL (       1 calls)
     phqscf       : 218744.15s CPU 246619.00s WALL (       1 calls)
     dynmatrix    :      3.04s CPU      4.27s WALL (       1 calls)
 
     phqscf       : 218744.15s CPU 246619.00s WALL (       1 calls)
     solve_linter : 217951.73s CPU 244069.87s WALL (     131 calls)
     drhodv       :    759.66s CPU    783.35s WALL (     131 calls)
 
     dynmat0      :     17.54s CPU     18.06s WALL (       1 calls)
     dynmat_us    :     12.68s CPU     12.76s WALL (       1 calls)
     d2ionq       :      2.32s CPU      2.32s WALL (       1 calls)
     dynmatcc     :      2.22s CPU      2.22s WALL (       1 calls)
 
     dynmat_us    :     12.68s CPU     12.76s WALL (       1 calls)
     addusdynmat  :      0.16s CPU      0.16s WALL (       1 calls)
 
     phqscf       : 218744.15s CPU 246619.00s WALL (       1 calls)
     solve_linter : 217951.73s CPU 244069.87s WALL (     131 calls)
 
     solve_linter : 217951.73s CPU 244069.87s WALL (     131 calls)
     dvqpsi_us    :  13716.33s CPU  13770.37s WALL (     528 calls)
     ortho        :   7883.34s CPU   7960.51s WALL (    6884 calls)
     cgsolve      : 177693.46s CPU 180678.27s WALL (    6884 calls)
     incdrhoscf   :   7187.19s CPU   7308.72s WALL (    6884 calls)
     addusddens   :    273.50s CPU    283.68s WALL (    1839 calls)
     vpsifft      :   5254.04s CPU   5366.13s WALL (    6356 calls)
     dv_of_drho   :     93.85s CPU     96.47s WALL (    1721 calls)
     mix_pot      :    245.00s CPU    606.76s WALL (    1708 calls)
     ef_shift     :     14.62s CPU     20.85s WALL (    1839 calls)
     localdos     :    620.82s CPU    640.34s WALL (     131 calls)
     psymdvscf    :    445.92s CPU    466.14s WALL (    1708 calls)
     newdq        :    595.62s CPU    603.36s WALL (    1708 calls)
     adddvscf     :    868.42s CPU    870.79s WALL (    6356 calls)
     drhodvus     :      4.70s CPU     86.31s WALL (     131 calls)
 
     dvqpsi_us    :  13716.33s CPU  13770.37s WALL (     528 calls)
     dvqpsi_us_on :  12932.44s CPU  12970.80s WALL (     528 calls)
 
     cgsolve      : 177693.46s CPU 180678.27s WALL (    6884 calls)
     ch_psi       : 174600.77s CPU 177545.69s WALL (  187041 calls)
 
     ch_psi       : 174600.77s CPU 177545.69s WALL (  187041 calls)
     h_psiq       : 133000.77s CPU 135173.12s WALL (  187041 calls)
     last         :  41566.70s CPU  42137.03s WALL (  187041 calls)
 
     h_psiq       : 133000.77s CPU 135173.12s WALL (  187041 calls)
     firstfft     :  47582.38s CPU  47578.09s WALL (21008658 calls)
     secondfft    :  50689.43s CPU  52308.99s WALL (21008658 calls)
     add_vuspsi   :   5053.31s CPU   5336.91s WALL (  187041 calls)
 
     incdrhoscf   :   7187.19s CPU   7308.72s WALL (    6884 calls)
     addusdbec    :   2073.34s CPU   2106.80s WALL (    7412 calls)
 
     drhodvus     :      4.70s CPU     86.31s WALL (     131 calls)
 
      General routines
     calbec       :  52172.08s CPU  52339.67s WALL (  391054 calls)
     fft          :    468.06s CPU    475.85s WALL (   46436 calls)
     ffts         :    346.99s CPU    352.54s WALL (  110176 calls)
     fftw         : 107491.53s CPU 108899.53s WALL (47143844 calls)
     davcio       :      5.67s CPU    737.50s WALL (   64791 calls)
     write_rec    :    522.93s CPU  23861.23s WALL (    1839 calls)
 
