
     Program PWSCF v.5.0.2 (svn rev. 9656) starts on 12Dec2015 at  4:53:11 

     This program is part of the open-source Quantum ESPRESSO suite
     for quantum simulation of materials; please cite
         "P. Giannozzi et al., J. Phys.:Condens. Matter 21 395502 (2009);
          URL http://www.quantum-espresso.org", 
     in publications or presentations arising from this work. More details at
     http://www.quantum-espresso.org/quote.php

     Parallel version (MPI & OpenMP), running on      48 processor cores
     Number of MPI processes:                48
     Threads/MPI process:                     1
     K-points division:     npool     =       4
     R & G space division:  proc/nbgrp/npool/nimage =      12
     wavefunctions fft division:  fft/group =       2

     Current dimensions of program PWSCF are:
     Max number of different atomic species (ntypx) = 10
     Max number of k-points (npk) =  40000
     Max angular momentum in pseudopotentials (lmaxx) =  3
     Reading input from Fe_100_2x2_H2S_top_25ML_scf.in
Warning: card  &IONS ignored
Warning: card  / ignored
Warning: card  &CELL ignored
Warning: card    PRESS=0.0 ignored
Warning: card    PRESS_CONV_THR=0.1 ignored
Warning: card  / ignored

     IMPORTANT: XC functional enforced from input :
     Exchange-correlation      = PBE ( 1 4 3 4 0)
     EXX-fraction              =        0.00
     Any further DFT definition will be discarded
     Please, verify this is what you really want

               file Fe.pbe-spn-kjpaw_psl.0.2.1.UPF: wavefunction(s)  3D renormalized
               file S.pbe-n-kjpaw_psl.0.1.UPF: wavefunction(s)  3P renormalized
               file H.pbe-kjpaw_psl.0.1.upf: wavefunction(s)  1S renormalized

     Subspace diagonalization in iterative solution of the eigenvalue problem:
     scalapack distributed-memory algorithm (size of sub-group:  2*  2 procs)


   Task Groups are in USE
   groups and procs/group :     2    6
 
     Parallelization info
     --------------------
     sticks:   dense  smooth     PW     G-vecs:    dense   smooth      PW
     Min         608     288     79               124119    40608    5765
     Max         610     289     80               124128    40659    5774
     Sum        7305    3457    949              1489451   487579   69203
 


     bravais-lattice index     =            0
     lattice parameter (alat)  =       1.8897  a.u.
     unit-cell volume          =    3898.2644 (a.u.)^3
     number of atoms/cell      =           23
     number of atomic types    =            3
     number of electrons       =       328.00
     number of Kohn-Sham states=          197
     kinetic-energy cutoff     =      95.0000  Ry
     charge density cutoff     =     800.0000  Ry
     convergence threshold     =      1.0E-08
     mixing beta               =       0.5000
     number of iterations used =            8  local-TF  mixing
     Exchange-correlation      = PBE ( 1 4 3 4 0)
     EXX-fraction              =        0.00

     celldm(1)=   1.889727  celldm(2)=   0.000000  celldm(3)=   0.000000
     celldm(4)=   0.000000  celldm(5)=   0.000000  celldm(6)=   0.000000

     crystal axes: (cart. coord. in units of alat)
               a(1) = (   5.665012   0.000000   0.000000 )  
               a(2) = (   0.000000   5.665012   0.000000 )  
               a(3) = (   0.000000   0.000000  18.000000 )  

     reciprocal axes: (cart. coord. in units 2 pi/alat)
               b(1) = (  0.176522 -0.000000  0.000000 )  
               b(2) = (  0.000000  0.176522  0.000000 )  
               b(3) = (  0.000000  0.000000  0.055556 )  


     PseudoPot. # 1 for Fe read from file:
     /work/e05/e05/ablar/QE_PSEUDO/Fe.pbe-spn-kjpaw_psl.0.2.1.UPF
     MD5 check sum: a0a08122d52b112de96d1da1d7dd020f
     Pseudo is Projector augmented-wave + core cor, Zval = 16.0
     Generated using "atomic" code by A. Dal Corso  v.5.0.2 svn rev. 9415
     Shape of augmentation charge: PSQ
     Using radial grid of 1191 points,  6 beta functions with: 
                l(1) =   0
                l(2) =   0
                l(3) =   1
                l(4) =   1
                l(5) =   2
                l(6) =   2
     Q(r) pseudized with 0 coefficients 


     PseudoPot. # 2 for  S read from file:
     /work/e05/e05/ablar/QE_PSEUDO/S.pbe-n-kjpaw_psl.0.1.UPF
     MD5 check sum: 4d0aa7498161b95d6b336a838fdb998f
     Pseudo is Projector augmented-wave + core cor, Zval =  6.0
     Generated using "atomic" code by A. Dal Corso  v.5.0.2 svn rev. 9415
     Shape of augmentation charge: PSQ
     Using radial grid of 1151 points,  4 beta functions with: 
                l(1) =   0
                l(2) =   0
                l(3) =   1
                l(4) =   1
     Q(r) pseudized with 0 coefficients 


     PseudoPot. # 3 for  H read from file:
     /work/e05/e05/ablar/QE_PSEUDO/H.pbe-kjpaw_psl.0.1.upf
     MD5 check sum: 94e484f906d9e9773b2f6e52662335b2
     Pseudo is Projector augmented-wave, Zval =  1.0
     Generated using "atomic" code by A. Dal Corso  v.5.0.99 svn rev. 10869
     Shape of augmentation charge: PSQ
     Using radial grid of  929 points,  2 beta functions with: 
                l(1) =   0
                l(2) =   0
     Q(r) pseudized with 0 coefficients 


     atomic species   valence    mass     pseudopotential
        Fe            16.00    55.85000     Fe( 1.00)
        S              6.00    32.00000      S( 1.00)
        H              1.00     1.00000      H( 1.00)

     Starting magnetic structure 
     atomic species   magnetization
        Fe           0.600
        S            0.000
        H            0.000


     Simplified LDA+U calculation (l_max = 2) with parameters (eV):
     atomic species    L          U    alpha       J0     beta
        Fe             2     0.0000   0.0000   0.0000   0.0000



     No symmetry found


                                    s                        frac. trans.

      isym =  1     identity                                     

 cryst.   s( 1) = (     1          0          0      )
                  (     0          1          0      )
                  (     0          0          1      )

 cart.    s( 1) = (  1.0000000  0.0000000  0.0000000 )
                  (  0.0000000  1.0000000  0.0000000 )
                  (  0.0000000  0.0000000  1.0000000 )


     point group C_1 (1)    
     there are  1 classes
     the character table:

       E    
A      1.00

     the symmetry operations in each class:
     E        1

   Cartesian axes

     site n.     atom                  positions (alat units)
         1           Fe  tau(   1) = (   0.0000000   0.0000000  -2.8325049  )
         2           Fe  tau(   2) = (   0.0000000   2.8325049  -2.8325049  )
         3           Fe  tau(   3) = (   2.8325049   0.0000000  -2.8325049  )
         4           Fe  tau(   4) = (   2.8325049   2.8325049  -2.8325049  )
         5           Fe  tau(   5) = (   1.4162524   1.4162524  -1.4162524  )
         6           Fe  tau(   6) = (   1.4162524  -1.4162524  -1.4162524  )
         7           Fe  tau(   7) = (  -1.4162524   1.4162524  -1.4162524  )
         8           Fe  tau(   8) = (  -1.4162524  -1.4162524  -1.4162524  )
         9           Fe  tau(   9) = (   0.0000000   0.0000000   0.0000000  )
        10           Fe  tau(  10) = (   0.0000000   2.8325049   0.0000000  )
        11           Fe  tau(  11) = (   2.8325049   0.0000000   0.0000000  )
        12           Fe  tau(  12) = (   2.8325049   2.8325049   0.0000000  )
        13           Fe  tau(  13) = (   1.4086276   1.4077545   1.4269096  )
        14           Fe  tau(  14) = (   1.4083429  -1.4074402   1.4274642  )
        15           Fe  tau(  15) = (  -1.4075682   1.4062319   1.4334032  )
        16           Fe  tau(  16) = (  -1.4070754  -1.4053587   1.4341288  )
        17           Fe  tau(  17) = (   0.0273854   0.0027811   2.9301422  )
        18           Fe  tau(  18) = (   0.0046219   2.8305546   2.8105990  )
        19           Fe  tau(  19) = (   2.8133480   0.0005525   2.8193844  )
        20           Fe  tau(  20) = (   2.8266427   2.8329548   2.7999423  )
        21           S   tau(  21) = (  -0.5560839  -0.0108837   5.2982000  )
        22           H   tau(  22) = (   0.1827472   0.9258079   5.9509606  )
        23           H   tau(  23) = (   0.1167524  -1.0174198   5.9163249  )

   Crystallographic axes

     site n.     atom                  positions (cryst. coord.)
         1           Fe  tau(   1) = (  0.0000000  0.0000000 -0.1573614  )
         2           Fe  tau(   2) = ( -0.0000000  0.4999998 -0.1573614  )
         3           Fe  tau(   3) = (  0.4999998  0.0000000 -0.1573614  )
         4           Fe  tau(   4) = (  0.4999998  0.4999998 -0.1573614  )
         5           Fe  tau(   5) = (  0.2499999  0.2499999 -0.0786807  )
         6           Fe  tau(   6) = (  0.2499999 -0.2499999 -0.0786807  )
         7           Fe  tau(   7) = ( -0.2499999  0.2499999 -0.0786807  )
         8           Fe  tau(   8) = ( -0.2499999 -0.2499999 -0.0786807  )
         9           Fe  tau(   9) = (  0.0000000  0.0000000  0.0000000  )
        10           Fe  tau(  10) = ( -0.0000000  0.4999998  0.0000000  )
        11           Fe  tau(  11) = (  0.4999998  0.0000000  0.0000000  )
        12           Fe  tau(  12) = (  0.4999998  0.4999998  0.0000000  )
        13           Fe  tau(  13) = (  0.2486540  0.2484998  0.0792728  )
        14           Fe  tau(  14) = (  0.2486037 -0.2484443  0.0793036  )
        15           Fe  tau(  15) = ( -0.2484669  0.2482311  0.0796335  )
        16           Fe  tau(  16) = ( -0.2483800 -0.2480769  0.0796738  )
        17           Fe  tau(  17) = (  0.0048341  0.0004909  0.1627857  )
        18           Fe  tau(  18) = (  0.0008159  0.4996555  0.1561444  )
        19           Fe  tau(  19) = (  0.4966182  0.0000975  0.1566325  )
        20           Fe  tau(  20) = (  0.4989650  0.5000792  0.1555523  )
        21           S   tau(  21) = ( -0.0981611 -0.0019212  0.2943444  )
        22           H   tau(  22) = (  0.0322589  0.1634256  0.3306089  )
        23           H   tau(  23) = (  0.0206094 -0.1795971  0.3286847  )

     number of k points=    20  Marzari-Vanderbilt smearing, width (Ry)=  0.0400
                       cart. coord. in units 2pi/alat
        k(    1) = (   0.0000000   0.0000000   0.0000000), wk =   0.0625000
        k(    2) = (   0.0000000   0.0441305   0.0000000), wk =   0.1250000
        k(    3) = (   0.0000000  -0.0882611   0.0000000), wk =   0.0625000
        k(    4) = (   0.0441305   0.0441305   0.0000000), wk =   0.1250000
        k(    5) = (   0.0441305  -0.0882611   0.0000000), wk =   0.1250000
        k(    6) = (  -0.0882611  -0.0882611   0.0000000), wk =   0.0625000
        k(    7) = (   0.0441305  -0.0000000   0.0000000), wk =   0.1250000
        k(    8) = (  -0.0882611   0.0000000   0.0000000), wk =   0.0625000
        k(    9) = (  -0.0441305   0.0441305   0.0000000), wk =   0.1250000
        k(   10) = (  -0.0882611   0.0441305   0.0000000), wk =   0.1250000
        k(   11) = (   0.0000000   0.0000000   0.0000000), wk =   0.0625000
        k(   12) = (   0.0000000   0.0441305   0.0000000), wk =   0.1250000
        k(   13) = (   0.0000000  -0.0882611   0.0000000), wk =   0.0625000
        k(   14) = (   0.0441305   0.0441305   0.0000000), wk =   0.1250000
        k(   15) = (   0.0441305  -0.0882611   0.0000000), wk =   0.1250000
        k(   16) = (  -0.0882611  -0.0882611   0.0000000), wk =   0.0625000
        k(   17) = (   0.0441305  -0.0000000   0.0000000), wk =   0.1250000
        k(   18) = (  -0.0882611   0.0000000   0.0000000), wk =   0.0625000
        k(   19) = (  -0.0441305   0.0441305   0.0000000), wk =   0.1250000
        k(   20) = (  -0.0882611   0.0441305   0.0000000), wk =   0.1250000

                       cryst. coord.
        k(    1) = (   0.0000000   0.0000000   0.0000000), wk =   0.0625000
        k(    2) = (   0.0000000   0.2500000   0.0000000), wk =   0.1250000
        k(    3) = (   0.0000000  -0.5000000   0.0000000), wk =   0.0625000
        k(    4) = (   0.2500000   0.2500000   0.0000000), wk =   0.1250000
        k(    5) = (   0.2500000  -0.5000000   0.0000000), wk =   0.1250000
        k(    6) = (  -0.5000000  -0.5000000   0.0000000), wk =   0.0625000
        k(    7) = (   0.2500000   0.0000000   0.0000000), wk =   0.1250000
        k(    8) = (  -0.5000000  -0.0000000   0.0000000), wk =   0.0625000
        k(    9) = (  -0.2500000   0.2500000   0.0000000), wk =   0.1250000
        k(   10) = (  -0.5000000   0.2500000   0.0000000), wk =   0.1250000
        k(   11) = (   0.0000000   0.0000000   0.0000000), wk =   0.0625000
        k(   12) = (   0.0000000   0.2500000   0.0000000), wk =   0.1250000
        k(   13) = (   0.0000000  -0.5000000   0.0000000), wk =   0.0625000
        k(   14) = (   0.2500000   0.2500000   0.0000000), wk =   0.1250000
        k(   15) = (   0.2500000  -0.5000000   0.0000000), wk =   0.1250000
        k(   16) = (  -0.5000000  -0.5000000   0.0000000), wk =   0.0625000
        k(   17) = (   0.2500000   0.0000000   0.0000000), wk =   0.1250000
        k(   18) = (  -0.5000000  -0.0000000   0.0000000), wk =   0.0625000
        k(   19) = (  -0.2500000   0.2500000   0.0000000), wk =   0.1250000
        k(   20) = (  -0.5000000   0.2500000   0.0000000), wk =   0.1250000

     Dense  grid:  1489451 G-vectors     FFT dimensions: ( 100, 100, 320)

     Smooth grid:   487579 G-vectors     FFT dimensions: (  72,  72, 216)

     Largest allocated arrays     est. size (Mb)     dimensions
        Kohn-Sham Wavefunctions        15.35 Mb     (   5107,  197)
        Atomic wavefunctions           20.73 Mb     (   5107,  266)
        NL pseudopotentials            28.99 Mb     (   5107,  372)
        Each V/rho on FFT grid          8.24 Mb     ( 270000,   2)
        Each G-vector array             0.95 Mb     ( 124120)
        G-vector shells                 0.34 Mb     (  44791)
     Largest temporary arrays     est. size (Mb)     dimensions
        Auxiliary wavefunctions        61.41 Mb     (   5107,  788)
        Each subspace H/S matrix        2.37 Mb     ( 394, 394)
        Each <psi_i|beta_j> matrix      1.12 Mb     (    372,  197)
        Arrays for rho mixing          32.96 Mb     ( 270000,   8)

     Check: negative/imaginary core charge=   -0.000011    0.000000

     Initial potential from superposition of free atoms

     starting charge  327.99118, renormalised to  328.00000

     negative rho (up, down):  0.639E-05 0.434E-06
 --- in v_hubbard ---
Hubbard energy    0.0000
 -------
     Number of +U iterations with fixed ns =  0
     Starting occupations:
 --- enter write_ns ---
 LDA+U parameters:
U( 1)     =  0.00000000
alpha( 1) =  0.00000000
atom    1   Tr[ns(na)] (up, down, total) =   5.00000  1.00000  6.00000
   spin  1
    eigenvalues: 
  1.000  1.000  1.000  1.000  1.000
    eigenvectors:
  1.000  0.000  0.000  0.000  0.000
  0.000  1.000  0.000  0.000  0.000
  0.000  0.000  1.000  0.000  0.000
  0.000  0.000  0.000  1.000  0.000
  0.000  0.000  0.000  0.000  1.000
    occupations:
  1.000  0.000  0.000  0.000  0.000
  0.000  1.000  0.000  0.000  0.000
  0.000  0.000  1.000  0.000  0.000
  0.000  0.000  0.000  1.000  0.000
  0.000  0.000  0.000  0.000  1.000
   spin  2
    eigenvalues: 
  0.200  0.200  0.200  0.200  0.200
    eigenvectors:
  1.000  0.000  0.000  0.000  0.000
  0.000  1.000  0.000  0.000  0.000
  0.000  0.000  1.000  0.000  0.000
  0.000  0.000  0.000  1.000  0.000
  0.000  0.000  0.000  0.000  1.000
    occupations:
  0.200  0.000  0.000  0.000  0.000
  0.000  0.200  0.000  0.000  0.000
  0.000  0.000  0.200  0.000  0.000
  0.000  0.000  0.000  0.200  0.000
  0.000  0.000  0.000  0.000  0.200
atomic mag. moment =     4.000000
atom    2   Tr[ns(na)] (up, down, total) =   5.00000  1.00000  6.00000
   spin  1
    eigenvalues: 
  1.000  1.000  1.000  1.000  1.000
    eigenvectors:
  1.000  0.000  0.000  0.000  0.000
  0.000  1.000  0.000  0.000  0.000
  0.000  0.000  1.000  0.000  0.000
  0.000  0.000  0.000  1.000  0.000
  0.000  0.000  0.000  0.000  1.000
    occupations:
  1.000  0.000  0.000  0.000  0.000
  0.000  1.000  0.000  0.000  0.000
  0.000  0.000  1.000  0.000  0.000
  0.000  0.000  0.000  1.000  0.000
  0.000  0.000  0.000  0.000  1.000
   spin  2
    eigenvalues: 
  0.200  0.200  0.200  0.200  0.200
    eigenvectors:
  1.000  0.000  0.000  0.000  0.000
  0.000  1.000  0.000  0.000  0.000
  0.000  0.000  1.000  0.000  0.000
  0.000  0.000  0.000  1.000  0.000
  0.000  0.000  0.000  0.000  1.000
    occupations:
  0.200  0.000  0.000  0.000  0.000
  0.000  0.200  0.000  0.000  0.000
  0.000  0.000  0.200  0.000  0.000
  0.000  0.000  0.000  0.200  0.000
  0.000  0.000  0.000  0.000  0.200
atomic mag. moment =     4.000000
atom    3   Tr[ns(na)] (up, down, total) =   5.00000  1.00000  6.00000
   spin  1
    eigenvalues: 
  1.000  1.000  1.000  1.000  1.000
    eigenvectors:
  1.000  0.000  0.000  0.000  0.000
  0.000  1.000  0.000  0.000  0.000
  0.000  0.000  1.000  0.000  0.000
  0.000  0.000  0.000  1.000  0.000
  0.000  0.000  0.000  0.000  1.000
    occupations:
  1.000  0.000  0.000  0.000  0.000
  0.000  1.000  0.000  0.000  0.000
  0.000  0.000  1.000  0.000  0.000
  0.000  0.000  0.000  1.000  0.000
  0.000  0.000  0.000  0.000  1.000
   spin  2
    eigenvalues: 
  0.200  0.200  0.200  0.200  0.200
    eigenvectors:
  1.000  0.000  0.000  0.000  0.000
  0.000  1.000  0.000  0.000  0.000
  0.000  0.000  1.000  0.000  0.000
  0.000  0.000  0.000  1.000  0.000
  0.000  0.000  0.000  0.000  1.000
    occupations:
  0.200  0.000  0.000  0.000  0.000
  0.000  0.200  0.000  0.000  0.000
  0.000  0.000  0.200  0.000  0.000
  0.000  0.000  0.000  0.200  0.000
  0.000  0.000  0.000  0.000  0.200
atomic mag. moment =     4.000000
atom    4   Tr[ns(na)] (up, down, total) =   5.00000  1.00000  6.00000
   spin  1
    eigenvalues: 
  1.000  1.000  1.000  1.000  1.000
    eigenvectors:
  1.000  0.000  0.000  0.000  0.000
  0.000  1.000  0.000  0.000  0.000
  0.000  0.000  1.000  0.000  0.000
  0.000  0.000  0.000  1.000  0.000
  0.000  0.000  0.000  0.000  1.000
    occupations:
  1.000  0.000  0.000  0.000  0.000
  0.000  1.000  0.000  0.000  0.000
  0.000  0.000  1.000  0.000  0.000
  0.000  0.000  0.000  1.000  0.000
  0.000  0.000  0.000  0.000  1.000
   spin  2
    eigenvalues: 
  0.200  0.200  0.200  0.200  0.200
    eigenvectors:
  1.000  0.000  0.000  0.000  0.000
  0.000  1.000  0.000  0.000  0.000
  0.000  0.000  1.000  0.000  0.000
  0.000  0.000  0.000  1.000  0.000
  0.000  0.000  0.000  0.000  1.000
    occupations:
  0.200  0.000  0.000  0.000  0.000
  0.000  0.200  0.000  0.000  0.000
  0.000  0.000  0.200  0.000  0.000
  0.000  0.000  0.000  0.200  0.000
  0.000  0.000  0.000  0.000  0.200
atomic mag. moment =     4.000000
atom    5   Tr[ns(na)] (up, down, total) =   5.00000  1.00000  6.00000
   spin  1
    eigenvalues: 
  1.000  1.000  1.000  1.000  1.000
    eigenvectors:
  1.000  0.000  0.000  0.000  0.000
  0.000  1.000  0.000  0.000  0.000
  0.000  0.000  1.000  0.000  0.000
  0.000  0.000  0.000  1.000  0.000
  0.000  0.000  0.000  0.000  1.000
    occupations:
  1.000  0.000  0.000  0.000  0.000
  0.000  1.000  0.000  0.000  0.000
  0.000  0.000  1.000  0.000  0.000
  0.000  0.000  0.000  1.000  0.000
  0.000  0.000  0.000  0.000  1.000
   spin  2
    eigenvalues: 
  0.200  0.200  0.200  0.200  0.200
    eigenvectors:
  1.000  0.000  0.000  0.000  0.000
  0.000  1.000  0.000  0.000  0.000
  0.000  0.000  1.000  0.000  0.000
  0.000  0.000  0.000  1.000  0.000
  0.000  0.000  0.000  0.000  1.000
    occupations:
  0.200  0.000  0.000  0.000  0.000
  0.000  0.200  0.000  0.000  0.000
  0.000  0.000  0.200  0.000  0.000
  0.000  0.000  0.000  0.200  0.000
  0.000  0.000  0.000  0.000  0.200
atomic mag. moment =     4.000000
atom    6   Tr[ns(na)] (up, down, total) =   5.00000  1.00000  6.00000
   spin  1
    eigenvalues: 
  1.000  1.000  1.000  1.000  1.000
    eigenvectors:
  1.000  0.000  0.000  0.000  0.000
  0.000  1.000  0.000  0.000  0.000
  0.000  0.000  1.000  0.000  0.000
  0.000  0.000  0.000  1.000  0.000
  0.000  0.000  0.000  0.000  1.000
    occupations:
  1.000  0.000  0.000  0.000  0.000
  0.000  1.000  0.000  0.000  0.000
  0.000  0.000  1.000  0.000  0.000
  0.000  0.000  0.000  1.000  0.000
  0.000  0.000  0.000  0.000  1.000
   spin  2
    eigenvalues: 
  0.200  0.200  0.200  0.200  0.200
    eigenvectors:
  1.000  0.000  0.000  0.000  0.000
  0.000  1.000  0.000  0.000  0.000
  0.000  0.000  1.000  0.000  0.000
  0.000  0.000  0.000  1.000  0.000
  0.000  0.000  0.000  0.000  1.000
    occupations:
  0.200  0.000  0.000  0.000  0.000
  0.000  0.200  0.000  0.000  0.000
  0.000  0.000  0.200  0.000  0.000
  0.000  0.000  0.000  0.200  0.000
  0.000  0.000  0.000  0.000  0.200
atomic mag. moment =     4.000000
atom    7   Tr[ns(na)] (up, down, total) =   5.00000  1.00000  6.00000
   spin  1
    eigenvalues: 
  1.000  1.000  1.000  1.000  1.000
    eigenvectors:
  1.000  0.000  0.000  0.000  0.000
  0.000  1.000  0.000  0.000  0.000
  0.000  0.000  1.000  0.000  0.000
  0.000  0.000  0.000  1.000  0.000
  0.000  0.000  0.000  0.000  1.000
    occupations:
  1.000  0.000  0.000  0.000  0.000
  0.000  1.000  0.000  0.000  0.000
  0.000  0.000  1.000  0.000  0.000
  0.000  0.000  0.000  1.000  0.000
  0.000  0.000  0.000  0.000  1.000
   spin  2
    eigenvalues: 
  0.200  0.200  0.200  0.200  0.200
    eigenvectors:
  1.000  0.000  0.000  0.000  0.000
  0.000  1.000  0.000  0.000  0.000
  0.000  0.000  1.000  0.000  0.000
  0.000  0.000  0.000  1.000  0.000
  0.000  0.000  0.000  0.000  1.000
    occupations:
  0.200  0.000  0.000  0.000  0.000
  0.000  0.200  0.000  0.000  0.000
  0.000  0.000  0.200  0.000  0.000
  0.000  0.000  0.000  0.200  0.000
  0.000  0.000  0.000  0.000  0.200
atomic mag. moment =     4.000000
atom    8   Tr[ns(na)] (up, down, total) =   5.00000  1.00000  6.00000
   spin  1
    eigenvalues: 
  1.000  1.000  1.000  1.000  1.000
    eigenvectors:
  1.000  0.000  0.000  0.000  0.000
  0.000  1.000  0.000  0.000  0.000
  0.000  0.000  1.000  0.000  0.000
  0.000  0.000  0.000  1.000  0.000
  0.000  0.000  0.000  0.000  1.000
    occupations:
  1.000  0.000  0.000  0.000  0.000
  0.000  1.000  0.000  0.000  0.000
  0.000  0.000  1.000  0.000  0.000
  0.000  0.000  0.000  1.000  0.000
  0.000  0.000  0.000  0.000  1.000
   spin  2
    eigenvalues: 
  0.200  0.200  0.200  0.200  0.200
    eigenvectors:
  1.000  0.000  0.000  0.000  0.000
  0.000  1.000  0.000  0.000  0.000
  0.000  0.000  1.000  0.000  0.000
  0.000  0.000  0.000  1.000  0.000
  0.000  0.000  0.000  0.000  1.000
    occupations:
  0.200  0.000  0.000  0.000  0.000
  0.000  0.200  0.000  0.000  0.000
  0.000  0.000  0.200  0.000  0.000
  0.000  0.000  0.000  0.200  0.000
  0.000  0.000  0.000  0.000  0.200
atomic mag. moment =     4.000000
atom    9   Tr[ns(na)] (up, down, total) =   5.00000  1.00000  6.00000
   spin  1
    eigenvalues: 
  1.000  1.000  1.000  1.000  1.000
    eigenvectors:
  1.000  0.000  0.000  0.000  0.000
  0.000  1.000  0.000  0.000  0.000
  0.000  0.000  1.000  0.000  0.000
  0.000  0.000  0.000  1.000  0.000
  0.000  0.000  0.000  0.000  1.000
    occupations:
  1.000  0.000  0.000  0.000  0.000
  0.000  1.000  0.000  0.000  0.000
  0.000  0.000  1.000  0.000  0.000
  0.000  0.000  0.000  1.000  0.000
  0.000  0.000  0.000  0.000  1.000
   spin  2
    eigenvalues: 
  0.200  0.200  0.200  0.200  0.200
    eigenvectors:
  1.000  0.000  0.000  0.000  0.000
  0.000  1.000  0.000  0.000  0.000
  0.000  0.000  1.000  0.000  0.000
  0.000  0.000  0.000  1.000  0.000
  0.000  0.000  0.000  0.000  1.000
    occupations:
  0.200  0.000  0.000  0.000  0.000
  0.000  0.200  0.000  0.000  0.000
  0.000  0.000  0.200  0.000  0.000
  0.000  0.000  0.000  0.200  0.000
  0.000  0.000  0.000  0.000  0.200
atomic mag. moment =     4.000000
atom   10   Tr[ns(na)] (up, down, total) =   5.00000  1.00000  6.00000
   spin  1
    eigenvalues: 
  1.000  1.000  1.000  1.000  1.000
    eigenvectors:
  1.000  0.000  0.000  0.000  0.000
  0.000  1.000  0.000  0.000  0.000
  0.000  0.000  1.000  0.000  0.000
  0.000  0.000  0.000  1.000  0.000
  0.000  0.000  0.000  0.000  1.000
    occupations:
  1.000  0.000  0.000  0.000  0.000
  0.000  1.000  0.000  0.000  0.000
  0.000  0.000  1.000  0.000  0.000
  0.000  0.000  0.000  1.000  0.000
  0.000  0.000  0.000  0.000  1.000
   spin  2
    eigenvalues: 
  0.200  0.200  0.200  0.200  0.200
    eigenvectors:
  1.000  0.000  0.000  0.000  0.000
  0.000  1.000  0.000  0.000  0.000
  0.000  0.000  1.000  0.000  0.000
  0.000  0.000  0.000  1.000  0.000
  0.000  0.000  0.000  0.000  1.000
    occupations:
  0.200  0.000  0.000  0.000  0.000
  0.000  0.200  0.000  0.000  0.000
  0.000  0.000  0.200  0.000  0.000
  0.000  0.000  0.000  0.200  0.000
  0.000  0.000  0.000  0.000  0.200
atomic mag. moment =     4.000000
atom   11   Tr[ns(na)] (up, down, total) =   5.00000  1.00000  6.00000
   spin  1
    eigenvalues: 
  1.000  1.000  1.000  1.000  1.000
    eigenvectors:
  1.000  0.000  0.000  0.000  0.000
  0.000  1.000  0.000  0.000  0.000
  0.000  0.000  1.000  0.000  0.000
  0.000  0.000  0.000  1.000  0.000
  0.000  0.000  0.000  0.000  1.000
    occupations:
  1.000  0.000  0.000  0.000  0.000
  0.000  1.000  0.000  0.000  0.000
  0.000  0.000  1.000  0.000  0.000
  0.000  0.000  0.000  1.000  0.000
  0.000  0.000  0.000  0.000  1.000
   spin  2
    eigenvalues: 
  0.200  0.200  0.200  0.200  0.200
    eigenvectors:
  1.000  0.000  0.000  0.000  0.000
  0.000  1.000  0.000  0.000  0.000
  0.000  0.000  1.000  0.000  0.000
  0.000  0.000  0.000  1.000  0.000
  0.000  0.000  0.000  0.000  1.000
    occupations:
  0.200  0.000  0.000  0.000  0.000
  0.000  0.200  0.000  0.000  0.000
  0.000  0.000  0.200  0.000  0.000
  0.000  0.000  0.000  0.200  0.000
  0.000  0.000  0.000  0.000  0.200
atomic mag. moment =     4.000000
atom   12   Tr[ns(na)] (up, down, total) =   5.00000  1.00000  6.00000
   spin  1
    eigenvalues: 
  1.000  1.000  1.000  1.000  1.000
    eigenvectors:
  1.000  0.000  0.000  0.000  0.000
  0.000  1.000  0.000  0.000  0.000
  0.000  0.000  1.000  0.000  0.000
  0.000  0.000  0.000  1.000  0.000
  0.000  0.000  0.000  0.000  1.000
    occupations:
  1.000  0.000  0.000  0.000  0.000
  0.000  1.000  0.000  0.000  0.000
  0.000  0.000  1.000  0.000  0.000
  0.000  0.000  0.000  1.000  0.000
  0.000  0.000  0.000  0.000  1.000
   spin  2
    eigenvalues: 
  0.200  0.200  0.200  0.200  0.200
    eigenvectors:
  1.000  0.000  0.000  0.000  0.000
  0.000  1.000  0.000  0.000  0.000
  0.000  0.000  1.000  0.000  0.000
  0.000  0.000  0.000  1.000  0.000
  0.000  0.000  0.000  0.000  1.000
    occupations:
  0.200  0.000  0.000  0.000  0.000
  0.000  0.200  0.000  0.000  0.000
  0.000  0.000  0.200  0.000  0.000
  0.000  0.000  0.000  0.200  0.000
  0.000  0.000  0.000  0.000  0.200
atomic mag. moment =     4.000000
atom   13   Tr[ns(na)] (up, down, total) =   5.00000  1.00000  6.00000
   spin  1
    eigenvalues: 
  1.000  1.000  1.000  1.000  1.000
    eigenvectors:
  1.000  0.000  0.000  0.000  0.000
  0.000  1.000  0.000  0.000  0.000
  0.000  0.000  1.000  0.000  0.000
  0.000  0.000  0.000  1.000  0.000
  0.000  0.000  0.000  0.000  1.000
    occupations:
  1.000  0.000  0.000  0.000  0.000
  0.000  1.000  0.000  0.000  0.000
  0.000  0.000  1.000  0.000  0.000
  0.000  0.000  0.000  1.000  0.000
  0.000  0.000  0.000  0.000  1.000
   spin  2
    eigenvalues: 
  0.200  0.200  0.200  0.200  0.200
    eigenvectors:
  1.000  0.000  0.000  0.000  0.000
  0.000  1.000  0.000  0.000  0.000
  0.000  0.000  1.000  0.000  0.000
  0.000  0.000  0.000  1.000  0.000
  0.000  0.000  0.000  0.000  1.000
    occupations:
  0.200  0.000  0.000  0.000  0.000
  0.000  0.200  0.000  0.000  0.000
  0.000  0.000  0.200  0.000  0.000
  0.000  0.000  0.000  0.200  0.000
  0.000  0.000  0.000  0.000  0.200
atomic mag. moment =     4.000000
atom   14   Tr[ns(na)] (up, down, total) =   5.00000  1.00000  6.00000
   spin  1
    eigenvalues: 
  1.000  1.000  1.000  1.000  1.000
    eigenvectors:
  1.000  0.000  0.000  0.000  0.000
  0.000  1.000  0.000  0.000  0.000
  0.000  0.000  1.000  0.000  0.000
  0.000  0.000  0.000  1.000  0.000
  0.000  0.000  0.000  0.000  1.000
    occupations:
  1.000  0.000  0.000  0.000  0.000
  0.000  1.000  0.000  0.000  0.000
  0.000  0.000  1.000  0.000  0.000
  0.000  0.000  0.000  1.000  0.000
  0.000  0.000  0.000  0.000  1.000
   spin  2
    eigenvalues: 
  0.200  0.200  0.200  0.200  0.200
    eigenvectors:
  1.000  0.000  0.000  0.000  0.000
  0.000  1.000  0.000  0.000  0.000
  0.000  0.000  1.000  0.000  0.000
  0.000  0.000  0.000  1.000  0.000
  0.000  0.000  0.000  0.000  1.000
    occupations:
  0.200  0.000  0.000  0.000  0.000
  0.000  0.200  0.000  0.000  0.000
  0.000  0.000  0.200  0.000  0.000
  0.000  0.000  0.000  0.200  0.000
  0.000  0.000  0.000  0.000  0.200
atomic mag. moment =     4.000000
atom   15   Tr[ns(na)] (up, down, total) =   5.00000  1.00000  6.00000
   spin  1
    eigenvalues: 
  1.000  1.000  1.000  1.000  1.000
    eigenvectors:
  1.000  0.000  0.000  0.000  0.000
  0.000  1.000  0.000  0.000  0.000
  0.000  0.000  1.000  0.000  0.000
  0.000  0.000  0.000  1.000  0.000
  0.000  0.000  0.000  0.000  1.000
    occupations:
  1.000  0.000  0.000  0.000  0.000
  0.000  1.000  0.000  0.000  0.000
  0.000  0.000  1.000  0.000  0.000
  0.000  0.000  0.000  1.000  0.000
  0.000  0.000  0.000  0.000  1.000
   spin  2
    eigenvalues: 
  0.200  0.200  0.200  0.200  0.200
    eigenvectors:
  1.000  0.000  0.000  0.000  0.000
  0.000  1.000  0.000  0.000  0.000
  0.000  0.000  1.000  0.000  0.000
  0.000  0.000  0.000  1.000  0.000
  0.000  0.000  0.000  0.000  1.000
    occupations:
  0.200  0.000  0.000  0.000  0.000
  0.000  0.200  0.000  0.000  0.000
  0.000  0.000  0.200  0.000  0.000
  0.000  0.000  0.000  0.200  0.000
  0.000  0.000  0.000  0.000  0.200
atomic mag. moment =     4.000000
atom   16   Tr[ns(na)] (up, down, total) =   5.00000  1.00000  6.00000
   spin  1
    eigenvalues: 
  1.000  1.000  1.000  1.000  1.000
    eigenvectors:
  1.000  0.000  0.000  0.000  0.000
  0.000  1.000  0.000  0.000  0.000
  0.000  0.000  1.000  0.000  0.000
  0.000  0.000  0.000  1.000  0.000
  0.000  0.000  0.000  0.000  1.000
    occupations:
  1.000  0.000  0.000  0.000  0.000
  0.000  1.000  0.000  0.000  0.000
  0.000  0.000  1.000  0.000  0.000
  0.000  0.000  0.000  1.000  0.000
  0.000  0.000  0.000  0.000  1.000
   spin  2
    eigenvalues: 
  0.200  0.200  0.200  0.200  0.200
    eigenvectors:
  1.000  0.000  0.000  0.000  0.000
  0.000  1.000  0.000  0.000  0.000
  0.000  0.000  1.000  0.000  0.000
  0.000  0.000  0.000  1.000  0.000
  0.000  0.000  0.000  0.000  1.000
    occupations:
  0.200  0.000  0.000  0.000  0.000
  0.000  0.200  0.000  0.000  0.000
  0.000  0.000  0.200  0.000  0.000
  0.000  0.000  0.000  0.200  0.000
  0.000  0.000  0.000  0.000  0.200
atomic mag. moment =     4.000000
atom   17   Tr[ns(na)] (up, down, total) =   5.00000  1.00000  6.00000
   spin  1
    eigenvalues: 
  1.000  1.000  1.000  1.000  1.000
    eigenvectors:
  1.000  0.000  0.000  0.000  0.000
  0.000  1.000  0.000  0.000  0.000
  0.000  0.000  1.000  0.000  0.000
  0.000  0.000  0.000  1.000  0.000
  0.000  0.000  0.000  0.000  1.000
    occupations:
  1.000  0.000  0.000  0.000  0.000
  0.000  1.000  0.000  0.000  0.000
  0.000  0.000  1.000  0.000  0.000
  0.000  0.000  0.000  1.000  0.000
  0.000  0.000  0.000  0.000  1.000
   spin  2
    eigenvalues: 
  0.200  0.200  0.200  0.200  0.200
    eigenvectors:
  1.000  0.000  0.000  0.000  0.000
  0.000  1.000  0.000  0.000  0.000
  0.000  0.000  1.000  0.000  0.000
  0.000  0.000  0.000  1.000  0.000
  0.000  0.000  0.000  0.000  1.000
    occupations:
  0.200  0.000  0.000  0.000  0.000
  0.000  0.200  0.000  0.000  0.000
  0.000  0.000  0.200  0.000  0.000
  0.000  0.000  0.000  0.200  0.000
  0.000  0.000  0.000  0.000  0.200
atomic mag. moment =     4.000000
atom   18   Tr[ns(na)] (up, down, total) =   5.00000  1.00000  6.00000
   spin  1
    eigenvalues: 
  1.000  1.000  1.000  1.000  1.000
    eigenvectors:
  1.000  0.000  0.000  0.000  0.000
  0.000  1.000  0.000  0.000  0.000
  0.000  0.000  1.000  0.000  0.000
  0.000  0.000  0.000  1.000  0.000
  0.000  0.000  0.000  0.000  1.000
    occupations:
  1.000  0.000  0.000  0.000  0.000
  0.000  1.000  0.000  0.000  0.000
  0.000  0.000  1.000  0.000  0.000
  0.000  0.000  0.000  1.000  0.000
  0.000  0.000  0.000  0.000  1.000
   spin  2
    eigenvalues: 
  0.200  0.200  0.200  0.200  0.200
    eigenvectors:
  1.000  0.000  0.000  0.000  0.000
  0.000  1.000  0.000  0.000  0.000
  0.000  0.000  1.000  0.000  0.000
  0.000  0.000  0.000  1.000  0.000
  0.000  0.000  0.000  0.000  1.000
    occupations:
  0.200  0.000  0.000  0.000  0.000
  0.000  0.200  0.000  0.000  0.000
  0.000  0.000  0.200  0.000  0.000
  0.000  0.000  0.000  0.200  0.000
  0.000  0.000  0.000  0.000  0.200
atomic mag. moment =     4.000000
atom   19   Tr[ns(na)] (up, down, total) =   5.00000  1.00000  6.00000
   spin  1
    eigenvalues: 
  1.000  1.000  1.000  1.000  1.000
    eigenvectors:
  1.000  0.000  0.000  0.000  0.000
  0.000  1.000  0.000  0.000  0.000
  0.000  0.000  1.000  0.000  0.000
  0.000  0.000  0.000  1.000  0.000
  0.000  0.000  0.000  0.000  1.000
    occupations:
  1.000  0.000  0.000  0.000  0.000
  0.000  1.000  0.000  0.000  0.000
  0.000  0.000  1.000  0.000  0.000
  0.000  0.000  0.000  1.000  0.000
  0.000  0.000  0.000  0.000  1.000
   spin  2
    eigenvalues: 
  0.200  0.200  0.200  0.200  0.200
    eigenvectors:
  1.000  0.000  0.000  0.000  0.000
  0.000  1.000  0.000  0.000  0.000
  0.000  0.000  1.000  0.000  0.000
  0.000  0.000  0.000  1.000  0.000
  0.000  0.000  0.000  0.000  1.000
    occupations:
  0.200  0.000  0.000  0.000  0.000
  0.000  0.200  0.000  0.000  0.000
  0.000  0.000  0.200  0.000  0.000
  0.000  0.000  0.000  0.200  0.000
  0.000  0.000  0.000  0.000  0.200
atomic mag. moment =     4.000000
atom   20   Tr[ns(na)] (up, down, total) =   5.00000  1.00000  6.00000
   spin  1
    eigenvalues: 
  1.000  1.000  1.000  1.000  1.000
    eigenvectors:
  1.000  0.000  0.000  0.000  0.000
  0.000  1.000  0.000  0.000  0.000
  0.000  0.000  1.000  0.000  0.000
  0.000  0.000  0.000  1.000  0.000
  0.000  0.000  0.000  0.000  1.000
    occupations:
  1.000  0.000  0.000  0.000  0.000
  0.000  1.000  0.000  0.000  0.000
  0.000  0.000  1.000  0.000  0.000
  0.000  0.000  0.000  1.000  0.000
  0.000  0.000  0.000  0.000  1.000
   spin  2
    eigenvalues: 
  0.200  0.200  0.200  0.200  0.200
    eigenvectors:
  1.000  0.000  0.000  0.000  0.000
  0.000  1.000  0.000  0.000  0.000
  0.000  0.000  1.000  0.000  0.000
  0.000  0.000  0.000  1.000  0.000
  0.000  0.000  0.000  0.000  1.000
    occupations:
  0.200  0.000  0.000  0.000  0.000
  0.000  0.200  0.000  0.000  0.000
  0.000  0.000  0.200  0.000  0.000
  0.000  0.000  0.000  0.200  0.000
  0.000  0.000  0.000  0.000  0.200
atomic mag. moment =     4.000000
N of occupied +U levels = 120.0000000
 --- exit write_ns ---
 Atomic wfc used for LDA+U Projector are NOT orthogonalized
     Starting wfc are  266 randomized atomic wfcs
     Checking if some PAW data can be deallocated... 
       node    0, deallocated PAW data for type:  2
       node    0, deallocated PAW data for type:  3
       node    1, deallocated PAW data for type:  2
       node    1, deallocated PAW data for type:  3
       node    2, deallocated PAW data for type:  2
       node    2, deallocated PAW data for type:  3
       node    3, deallocated PAW data for type:  2
       node    3, deallocated PAW data for type:  3
       node    4, deallocated PAW data for type:  2
       node    4, deallocated PAW data for type:  3
       node    5, deallocated PAW data for type:  2
       node    5, deallocated PAW data for type:  3
       node    6, deallocated PAW data for type:  2
       node    6, deallocated PAW data for type:  3
       node    7, deallocated PAW data for type:  2
       node    7, deallocated PAW data for type:  3
       node    8, deallocated PAW data for type:  2
       node    8, deallocated PAW data for type:  3
       node    9, deallocated PAW data for type:  2
       node    9, deallocated PAW data for type:  3
       node   10, deallocated PAW data for type:  2
       node   10, deallocated PAW data for type:  3
       node   11, deallocated PAW data for type:  2
       node   11, deallocated PAW data for type:  3
       node   12, deallocated PAW data for type:  2
       node   12, deallocated PAW data for type:  3
       node   13, deallocated PAW data for type:  2
       node   13, deallocated PAW data for type:  3
       node   14, deallocated PAW data for type:  2
       node   14, deallocated PAW data for type:  3
       node   15, deallocated PAW data for type:  2
       node   15, deallocated PAW data for type:  3
       node   16, deallocated PAW data for type:  2
       node   16, deallocated PAW data for type:  3
       node   17, deallocated PAW data for type:  2
       node   17, deallocated PAW data for type:  3
       node   18, deallocated PAW data for type:  2
       node   18, deallocated PAW data for type:  3
       node   19, deallocated PAW data for type:  2
       node   19, deallocated PAW data for type:  3
       node   20, deallocated PAW data for type:  2
       node   20, deallocated PAW data for type:  3
       node   21, deallocated PAW data for type:  2
       node   21, deallocated PAW data for type:  3
       node   22, deallocated PAW data for type:  2
       node   22, deallocated PAW data for type:  3
       node   23, deallocated PAW data for type:  2
       node   23, deallocated PAW data for type:  3
       node   24, deallocated PAW data for type:  2
       node   24, deallocated PAW data for type:  3
       node   25, deallocated PAW data for type:  2
       node   25, deallocated PAW data for type:  3
       node   26, deallocated PAW data for type:  2
       node   26, deallocated PAW data for type:  3
       node   27, deallocated PAW data for type:  2
       node   27, deallocated PAW data for type:  3
       node   28, deallocated PAW data for type:  2
       node   28, deallocated PAW data for type:  3
       node   29, deallocated PAW data for type:  2
       node   29, deallocated PAW data for type:  3
       node   30, deallocated PAW data for type:  2
       node   30, deallocated PAW data for type:  3
       node   31, deallocated PAW data for type:  2
       node   31, deallocated PAW data for type:  3
       node   32, deallocated PAW data for type:  2
       node   32, deallocated PAW data for type:  3
       node   33, deallocated PAW data for type:  2
       node   33, deallocated PAW data for type:  3
       node   34, deallocated PAW data for type:  2
       node   34, deallocated PAW data for type:  3
       node   35, deallocated PAW data for type:  2
       node   35, deallocated PAW data for type:  3
       node   36, deallocated PAW data for type:  2
       node   36, deallocated PAW data for type:  3
       node   37, deallocated PAW data for type:  2
       node   37, deallocated PAW data for type:  3
       node   38, deallocated PAW data for type:  2
       node   38, deallocated PAW data for type:  3
       node   39, deallocated PAW data for type:  2
       node   39, deallocated PAW data for type:  3
       node   40, deallocated PAW data for type:  2
       node   40, deallocated PAW data for type:  3
       node   41, deallocated PAW data for type:  2
       node   41, deallocated PAW data for type:  3
       node   42, deallocated PAW data for type:  1
       node   42, deallocated PAW data for type:  3
       node   43, deallocated PAW data for type:  1
       node   43, deallocated PAW data for type:  3
       node   44, deallocated PAW data for type:  1
       node   44, deallocated PAW data for type:  2
       node   45, deallocated PAW data for type:  1
       node   45, deallocated PAW data for type:  2
       node   46, deallocated PAW data for type:  1
       node   46, deallocated PAW data for type:  2
       node   47, deallocated PAW data for type:  1
       node   47, deallocated PAW data for type:  2

     total cpu time spent up to now is       54.4 secs

     per-process dynamical memory:   373.6 Mb

     Self-consistent Calculation

     iteration #  1     ecut=    95.00 Ry     beta=0.50
     Davidson diagonalization with overlap
     ethr =  1.00E-02,  avg # of iterations =  3.0
 --- enter write_ns ---
 LDA+U parameters:
U( 1)     =  0.00000000
alpha( 1) =  0.00000000
atom    1   Tr[ns(na)] (up, down, total) =   4.97372  1.09845  6.07217
   spin  1
    eigenvalues: 
  0.993  0.994  0.994  0.996  0.996
    eigenvectors:
  0.871  0.129  0.000  0.000  0.000
  0.129  0.871  0.000  0.000  0.000
  0.000  0.000  0.988  0.012  0.000
  0.000  0.000  0.000  0.002  0.998
  0.000  0.000  0.012  0.986  0.002
    occupations:
  0.994 -0.000  0.000  0.000  0.000
 -0.000  0.994  0.000 -0.000 -0.000
  0.000  0.000  0.994  0.000 -0.000
  0.000 -0.000  0.000  0.996 -0.000
  0.000 -0.000 -0.000 -0.000  0.996
   spin  2
    eigenvalues: 
  0.190  0.190  0.212  0.237  0.270
    eigenvectors:
  0.000  0.000  1.000  0.000  0.000
  0.652  0.348  0.000  0.000  0.000
  0.348  0.652  0.000  0.000  0.000
  0.000  0.000  0.000  1.000  0.000
  0.000  0.000  0.000  0.000  1.000
    occupations:
  0.212 -0.000 -0.000  0.000 -0.000
 -0.000  0.190  0.000 -0.000 -0.000
 -0.000  0.000  0.190  0.000 -0.001
  0.000 -0.000  0.000  0.237 -0.000
 -0.000 -0.000 -0.001 -0.000  0.270
atomic mag. moment =     3.875268
atom    2   Tr[ns(na)] (up, down, total) =   4.97354  1.09965  6.07319
   spin  1
    eigenvalues: 
  0.993  0.994  0.995  0.995  0.997
    eigenvectors:
  0.995  0.001  0.000  0.000  0.003
  0.000  0.000  0.998  0.002  0.000
  0.001  0.981  0.000  0.018  0.000
  0.003  0.000  0.000  0.000  0.996
  0.000  0.018  0.002  0.980  0.000
    occupations:
  0.993 -0.000  0.000 -0.000  0.000
 -0.000  0.995  0.000 -0.000  0.000
  0.000  0.000  0.994 -0.000 -0.000
 -0.000 -0.000 -0.000  0.997 -0.000
  0.000  0.000 -0.000 -0.000  0.995
   spin  2
    eigenvalues: 
  0.190  0.191  0.212  0.237  0.270
    eigenvectors:
  0.000  0.000  1.000  0.000  0.000
  0.891  0.109  0.000  0.000  0.000
  0.108  0.891  0.000  0.000  0.000
  0.000  0.000  0.000  1.000  0.000
  0.000  0.000  0.000  0.000  1.000
    occupations:
  0.212  0.000  0.000 -0.000  0.000
  0.000  0.190 -0.000  0.000  0.000
  0.000 -0.000  0.191 -0.000  0.001
 -0.000  0.000 -0.000  0.237  0.000
  0.000  0.000  0.001  0.000  0.270
atomic mag. moment =     3.873887
atom    3   Tr[ns(na)] (up, down, total) =   4.97311  1.10016  6.07327
   spin  1
    eigenvalues: 
  0.993  0.994  0.994  0.996  0.997
    eigenvectors:
  0.982  0.017  0.000  0.000  0.001
  0.017  0.981  0.002  0.000  0.000
  0.000  0.002  0.989  0.009  0.000
  0.001  0.000  0.000  0.004  0.995
  0.000  0.000  0.009  0.987  0.004
    occupations:
  0.993  0.000 -0.000  0.000  0.000
  0.000  0.994  0.000  0.000 -0.000
 -0.000  0.000  0.994  0.000  0.000
  0.000  0.000  0.000  0.996 -0.000
  0.000 -0.000  0.000 -0.000  0.996
   spin  2
    eigenvalues: 
  0.190  0.191  0.212  0.237  0.270
    eigenvectors:
  0.000  0.000  1.000  0.000  0.000
  0.236  0.764  0.000  0.000  0.000
  0.764  0.236  0.000  0.000  0.000
  0.000  0.000  0.000  1.000  0.000
  0.000  0.000  0.000  0.000  1.000
    occupations:
  0.212 -0.000 -0.000 -0.000  0.000
 -0.000  0.191  0.000 -0.000 -0.000
 -0.000  0.000  0.190 -0.000  0.000
 -0.000 -0.000 -0.000  0.237 -0.000
  0.000 -0.000  0.000 -0.000  0.270
atomic mag. moment =     3.872949
atom    4   Tr[ns(na)] (up, down, total) =   4.97285  1.09695  6.06980
   spin  1
    eigenvalues: 
  0.993  0.994  0.994  0.996  0.997
    eigenvectors:
  0.999  0.000  0.000  0.000  0.000
  0.000  0.000  0.998  0.001  0.000
  0.000  0.984  0.000  0.016  0.000
  0.000  0.000  0.000  0.000  0.999
  0.000  0.016  0.001  0.982  0.000
    occupations:
  0.993  0.000  0.000 -0.000 -0.000
  0.000  0.994  0.000  0.000  0.000
  0.000  0.000  0.994 -0.000  0.000
 -0.000  0.000 -0.000  0.997 -0.000
 -0.000  0.000  0.000 -0.000  0.996
   spin  2
    eigenvalues: 
  0.189  0.190  0.211  0.237  0.270
    eigenvectors:
  0.000  0.000  1.000  0.000  0.000
  0.566  0.433  0.000  0.000  0.000
  0.434  0.566  0.000  0.000  0.000
  0.000  0.000  0.000  1.000  0.000
  0.000  0.000  0.000  0.000  1.000
    occupations:
  0.211 -0.000  0.000  0.000  0.000
 -0.000  0.189 -0.000 -0.000  0.000
  0.000 -0.000  0.190  0.000  0.000
  0.000 -0.000  0.000  0.237  0.000
  0.000  0.000  0.000  0.000  0.270
atomic mag. moment =     3.875900
atom    5   Tr[ns(na)] (up, down, total) =   4.97965  2.35531  7.33496
   spin  1
    eigenvalues: 
  0.996  0.996  0.996  0.996  0.996
    eigenvectors:
  0.014  0.003  0.014  0.161  0.808
  0.815  0.155  0.020  0.003  0.007
  0.046  0.528  0.343  0.031  0.052
  0.003  0.046  0.015  0.803  0.133
  0.123  0.267  0.608  0.001  0.000
    occupations:
  0.996 -0.000 -0.000  0.000  0.000
 -0.000  0.996 -0.000  0.000 -0.000
 -0.000 -0.000  0.996 -0.000 -0.000
  0.000  0.000 -0.000  0.996 -0.000
  0.000 -0.000 -0.000 -0.000  0.996
   spin  2
    eigenvalues: 
  0.398  0.413  0.511  0.517  0.517
    eigenvectors:
  0.001  0.998  0.000  0.000  0.000
  0.000  0.000  0.028  0.010  0.962
  0.000  0.000  0.005  0.987  0.008
  0.998  0.001  0.000  0.000  0.000
  0.000  0.000  0.967  0.003  0.030
    occupations:
  0.413 -0.000 -0.000 -0.001  0.001
 -0.000  0.517  0.000 -0.000 -0.001
 -0.000  0.000  0.517 -0.000 -0.000
 -0.001 -0.000 -0.000  0.398 -0.000
  0.001 -0.001 -0.000 -0.000  0.511
atomic mag. moment =     2.624341
atom    6   Tr[ns(na)] (up, down, total) =   4.97965  2.35669  7.33634
   spin  1
    eigenvalues: 
  0.995  0.996  0.996  0.996  0.996
    eigenvectors:
  0.009  0.003  0.017  0.046  0.925
  0.897  0.070  0.026  0.001  0.006
  0.013  0.018  0.867  0.062  0.040
  0.000  0.003  0.079  0.890  0.028
  0.082  0.906  0.012  0.000  0.000
    occupations:
  0.996 -0.000  0.000  0.000 -0.000
 -0.000  0.996  0.000  0.000  0.000
  0.000  0.000  0.996  0.000 -0.000
  0.000  0.000  0.000  0.996 -0.000
 -0.000  0.000 -0.000 -0.000  0.996
   spin  2
    eigenvalues: 
  0.398  0.412  0.511  0.517  0.517
    eigenvectors:
  0.000  1.000  0.000  0.000  0.000
  0.000  0.000  0.003  0.685  0.312
  0.000  0.000  0.013  0.314  0.673
  1.000  0.000  0.000  0.000  0.000
  0.000  0.000  0.984  0.000  0.015
    occupations:
  0.413  0.001  0.000  0.000 -0.001
  0.001  0.517 -0.000 -0.000  0.000
  0.000 -0.000  0.517  0.000 -0.001
  0.000 -0.000  0.000  0.398 -0.000
 -0.001  0.000 -0.001 -0.000  0.512
atomic mag. moment =     2.622961
atom    7   Tr[ns(na)] (up, down, total) =   4.97928  2.35467  7.33395
   spin  1
    eigenvalues: 
  0.995  0.996  0.996  0.996  0.996
    eigenvectors:
  0.006  0.006  0.005  0.004  0.978
  0.014  0.642  0.329  0.001  0.013
  0.938  0.016  0.002  0.041  0.003
  0.039  0.001  0.003  0.951  0.006
  0.002  0.334  0.660  0.003  0.000
    occupations:
  0.996  0.000 -0.000 -0.000  0.000
  0.000  0.996  0.000  0.000 -0.000
 -0.000  0.000  0.995 -0.000  0.000
 -0.000  0.000 -0.000  0.996 -0.000
  0.000 -0.000  0.000 -0.000  0.996
   spin  2
    eigenvalues: 
  0.398  0.412  0.510  0.517  0.517
    eigenvectors:
  0.000  1.000  0.000  0.000  0.000
  0.000  0.000  0.000  0.019  0.981
  0.000  0.000  0.012  0.970  0.018
  1.000  0.000  0.000  0.000  0.000
  0.000  0.000  0.988  0.011  0.001
    occupations:
  0.412 -0.000 -0.000  0.000 -0.000
 -0.000  0.517 -0.000  0.000 -0.000
 -0.000 -0.000  0.517 -0.000  0.001
  0.000  0.000 -0.000  0.398  0.000
 -0.000 -0.000  0.001  0.000  0.510
atomic mag. moment =     2.624604
atom    8   Tr[ns(na)] (up, down, total) =   4.97914  2.35401  7.33314
   spin  1
    eigenvalues: 
  0.995  0.996  0.996  0.996  0.996
    eigenvectors:
  0.008  0.005  0.001  0.003  0.984
  0.031  0.813  0.145  0.002  0.009
  0.902  0.034  0.000  0.061  0.003
  0.055  0.004  0.006  0.930  0.004
  0.005  0.144  0.847  0.004  0.000
    occupations:
  0.996  0.000  0.000 -0.000 -0.000
  0.000  0.996 -0.000 -0.000  0.000
  0.000 -0.000  0.995  0.000  0.000
 -0.000 -0.000  0.000  0.996 -0.000
 -0.000  0.000  0.000 -0.000  0.996
   spin  2
    eigenvalues: 
  0.398  0.412  0.511  0.516  0.517
    eigenvectors:
  0.000  1.000  0.000  0.000  0.000
  0.000  0.000  0.000  0.867  0.132
  0.000  0.000  0.002  0.131  0.867
  1.000  0.000  0.000  0.000  0.000
  0.000  0.000  0.998  0.001  0.001
    occupations:
  0.412  0.000 -0.000 -0.000  0.000
  0.000  0.516  0.000  0.000 -0.000
 -0.000  0.000  0.517 -0.000  0.000
 -0.000  0.000 -0.000  0.398  0.000
  0.000 -0.000  0.000  0.000  0.511
atomic mag. moment =     2.625128
atom    9   Tr[ns(na)] (up, down, total) =   4.97743  2.35088  7.32831
   spin  1
    eigenvalues: 
  0.994  0.994  0.995  0.996  0.998
    eigenvectors:
  0.000  0.000  0.000  0.000  1.000
  0.999  0.001  0.000  0.000  0.000
  0.001  0.999  0.000  0.000  0.000
  0.000  0.000  0.000  0.999  0.000
  0.000  0.000  0.999  0.000  0.000
    occupations:
  0.997 -0.000  0.000 -0.000  0.000
 -0.000  0.994  0.000  0.000  0.000
  0.000  0.000  0.994 -0.000  0.000
 -0.000  0.000 -0.000  0.996  0.000
  0.000  0.000  0.000  0.000  0.995
   spin  2
    eigenvalues: 
  0.356  0.398  0.526  0.527  0.545
    eigenvectors:
  1.000  0.000  0.000  0.000  0.000
  0.000  0.000  0.939  0.061  0.001
  0.000  0.000  0.061  0.935  0.004
  0.000  1.000  0.000  0.000  0.000
  0.000  0.000  0.000  0.005  0.995
    occupations:
  0.356  0.000  0.001 -0.000 -0.000
  0.000  0.526 -0.000  0.001  0.001
  0.001 -0.000  0.527  0.000 -0.001
 -0.000  0.001  0.000  0.398  0.000
 -0.000  0.001 -0.001  0.000  0.545
atomic mag. moment =     2.626548
atom   10   Tr[ns(na)] (up, down, total) =   4.97819  2.33830  7.31650
   spin  1
    eigenvalues: 
  0.994  0.994  0.995  0.997  0.997
    eigenvectors:
  0.000  0.000  0.000  0.001  0.999
  0.999  0.001  0.000  0.000  0.000
  0.001  0.999  0.000  0.000  0.000
  0.000  0.000  0.000  0.999  0.001
  0.000  0.000  1.000  0.000  0.000
    occupations:
  0.997 -0.000 -0.000 -0.000 -0.000
 -0.000  0.994  0.000  0.000 -0.000
 -0.000  0.000  0.994 -0.000  0.000
 -0.000  0.000 -0.000  0.997  0.000
 -0.000 -0.000  0.000  0.000  0.995
   spin  2
    eigenvalues: 
  0.362  0.398  0.519  0.520  0.539
    eigenvectors:
  1.000  0.000  0.000  0.000  0.000
  0.000  0.000  0.865  0.135  0.000
  0.000  0.000  0.134  0.864  0.002
  0.000  1.000  0.000  0.000  0.000
  0.000  0.000  0.001  0.001  0.998
    occupations:
  0.362  0.000 -0.000 -0.000  0.000
  0.000  0.519 -0.000 -0.000 -0.000
 -0.000 -0.000  0.520  0.000 -0.001
 -0.000 -0.000  0.000  0.398  0.000
  0.000 -0.000 -0.001  0.000  0.539
atomic mag. moment =     2.639893
atom   11   Tr[ns(na)] (up, down, total) =   4.97706  2.33964  7.31670
   spin  1
    eigenvalues: 
  0.994  0.994  0.995  0.996  0.997
    eigenvectors:
  0.000  0.000  0.000  0.000  1.000
  0.000  1.000  0.000  0.000  0.000
  1.000  0.000  0.000  0.000  0.000
  0.000  0.000  0.000  1.000  0.000
  0.000  0.000  1.000  0.000  0.000
    occupations:
  0.997  0.000  0.000  0.000 -0.000
  0.000  0.994  0.000 -0.000 -0.000
  0.000  0.000  0.994 -0.000 -0.000
  0.000 -0.000 -0.000  0.996  0.000
 -0.000 -0.000 -0.000  0.000  0.995
   spin  2
    eigenvalues: 
  0.361  0.398  0.519  0.521  0.541
    eigenvectors:
  1.000  0.000  0.000  0.000  0.000
  0.000  0.000  0.318  0.682  0.000
  0.000  0.000  0.681  0.318  0.001
  0.000  1.000  0.000  0.000  0.000
  0.000  0.000  0.001  0.000  0.999
    occupations:
  0.361 -0.001  0.000 -0.000 -0.000
 -0.001  0.520  0.001  0.000 -0.000
  0.000  0.001  0.520 -0.000  0.001
 -0.000  0.000 -0.000  0.398  0.000
 -0.000 -0.000  0.001  0.000  0.541
atomic mag. moment =     2.637419
atom   12   Tr[ns(na)] (up, down, total) =   4.97754  2.31975  7.29729
   spin  1
    eigenvalues: 
  0.994  0.994  0.995  0.997  0.997
    eigenvectors:
  0.000  0.000  0.000  0.000  1.000
  0.000  1.000  0.000  0.000  0.000
  0.999  0.000  0.000  0.000  0.000
  0.000  0.000  0.000  1.000  0.000
  0.000  0.000  0.999  0.000  0.000
    occupations:
  0.997  0.000  0.000 -0.000  0.000
  0.000  0.994  0.000  0.000 -0.000
  0.000  0.000  0.994 -0.000 -0.000
 -0.000  0.000 -0.000  0.997  0.000
  0.000 -0.000 -0.000  0.000  0.995
   spin  2
    eigenvalues: 
  0.362  0.396  0.514  0.515  0.533
    eigenvectors:
  1.000  0.000  0.000  0.000  0.000
  0.000  0.000  0.842  0.158  0.000
  0.000  0.000  0.158  0.841  0.000
  0.000  1.000  0.000  0.000  0.000
  0.000  0.000  0.000  0.000  1.000
    occupations:
  0.362 -0.000 -0.000  0.000 -0.000
 -0.000  0.514 -0.000  0.000 -0.000
 -0.000 -0.000  0.515  0.000  0.000
  0.000  0.000  0.000  0.396  0.000
 -0.000 -0.000  0.000  0.000  0.533
atomic mag. moment =     2.657795
atom   13   Tr[ns(na)] (up, down, total) =   4.98004  2.37084  7.35088
   spin  1
    eigenvalues: 
  0.995  0.996  0.996  0.996  0.997
    eigenvectors:
  0.002  0.020  0.017  0.002  0.959
  0.920  0.013  0.065  0.000  0.001
  0.032  0.870  0.061  0.027  0.011
  0.002  0.022  0.005  0.969  0.001
  0.043  0.074  0.852  0.002  0.029
    occupations:
  0.997  0.000 -0.000 -0.000 -0.000
  0.000  0.995 -0.000  0.000  0.000
 -0.000 -0.000  0.996  0.000 -0.000
 -0.000  0.000  0.000  0.996 -0.000
 -0.000  0.000 -0.000 -0.000  0.996
   spin  2
    eigenvalues: 
  0.399  0.416  0.508  0.522  0.526
    eigenvectors:
  0.003  0.996  0.000  0.001  0.000
  0.000  0.000  0.194  0.554  0.252
  0.000  0.000  0.142  0.125  0.732
  0.997  0.003  0.000  0.000  0.000
  0.000  0.000  0.664  0.320  0.016
    occupations:
  0.416 -0.002  0.000 -0.001  0.002
 -0.002  0.520 -0.004  0.000 -0.005
  0.000 -0.004  0.523 -0.001 -0.005
 -0.001  0.000 -0.001  0.400  0.000
  0.002 -0.005 -0.005  0.000  0.513
atomic mag. moment =     2.609206
atom   14   Tr[ns(na)] (up, down, total) =   4.97991  2.36484  7.34475
   spin  1
    eigenvalues: 
  0.995  0.996  0.996  0.996  0.997
    eigenvectors:
  0.003  0.017  0.017  0.003  0.960
  0.957  0.003  0.038  0.002  0.001
  0.009  0.877  0.062  0.041  0.010
  0.003  0.039  0.002  0.954  0.001
  0.028  0.064  0.881  0.000  0.028
    occupations:
  0.997  0.000  0.000 -0.000  0.000
  0.000  0.995  0.000  0.000 -0.000
  0.000  0.000  0.996 -0.000 -0.000
 -0.000  0.000 -0.000  0.996 -0.000
  0.000 -0.000 -0.000 -0.000  0.996
   spin  2
    eigenvalues: 
  0.399  0.414  0.506  0.520  0.525
    eigenvectors:
  0.001  0.998  0.000  0.000  0.000
  0.000  0.000  0.154  0.734  0.112
  0.000  0.000  0.145  0.032  0.823
  0.999  0.001  0.000  0.000  0.000
  0.000  0.000  0.700  0.234  0.066
    occupations:
  0.414 -0.002  0.000 -0.001 -0.002
 -0.002  0.518  0.004  0.001  0.004
  0.000  0.004  0.522  0.001 -0.006
 -0.001  0.001  0.001  0.399 -0.000
 -0.002  0.004 -0.006 -0.000  0.511
atomic mag. moment =     2.615066
atom   15   Tr[ns(na)] (up, down, total) =   4.97956  2.32154  7.30109
   spin  1
    eigenvalues: 
  0.995  0.996  0.996  0.996  0.997
    eigenvectors:
  0.005  0.011  0.005  0.000  0.980
  0.000  0.776  0.219  0.000  0.004
  0.974  0.003  0.002  0.017  0.003
  0.017  0.000  0.000  0.983  0.000
  0.004  0.209  0.774  0.000  0.013
    occupations:
  0.997 -0.000  0.000 -0.000  0.000
 -0.000  0.996 -0.000 -0.000  0.000
  0.000 -0.000  0.995  0.000 -0.000
 -0.000 -0.000  0.000  0.996 -0.000
  0.000  0.000 -0.000 -0.000  0.996
   spin  2
    eigenvalues: 
  0.396  0.405  0.494  0.511  0.516
    eigenvectors:
  0.005  0.994  0.000  0.001  0.000
  0.000  0.000  0.235  0.004  0.760
  0.000  0.000  0.183  0.788  0.029
  0.994  0.005  0.000  0.000  0.000
  0.000  0.001  0.582  0.207  0.211
    occupations:
  0.405  0.001 -0.002  0.001 -0.003
  0.001  0.511  0.004 -0.000 -0.008
 -0.002  0.004  0.508 -0.000  0.005
  0.001 -0.000 -0.000  0.396 -0.000
 -0.003 -0.008  0.005 -0.000  0.502
atomic mag. moment =     2.658021
atom   16   Tr[ns(na)] (up, down, total) =   4.97950  2.31732  7.29682
   spin  1
    eigenvalues: 
  0.995  0.996  0.996  0.996  0.997
    eigenvectors:
  0.005  0.011  0.006  0.000  0.978
  0.000  0.844  0.150  0.001  0.004
  0.962  0.003  0.011  0.021  0.003
  0.024  0.000  0.013  0.963  0.000
  0.009  0.142  0.820  0.015  0.014
    occupations:
  0.997 -0.000 -0.000 -0.000 -0.000
 -0.000  0.996  0.000  0.000 -0.000
 -0.000  0.000  0.995 -0.000 -0.000
 -0.000  0.000 -0.000  0.996 -0.000
 -0.000 -0.000 -0.000 -0.000  0.996
   spin  2
    eigenvalues: 
  0.396  0.404  0.493  0.511  0.513
    eigenvectors:
  0.003  0.996  0.000  0.000  0.000
  0.000  0.000  0.208  0.013  0.779
  0.000  0.000  0.211  0.774  0.015
  0.997  0.003  0.000  0.000  0.000
  0.000  0.001  0.581  0.212  0.206
    occupations:
  0.404  0.001  0.001  0.000  0.003
  0.001  0.509 -0.004 -0.001  0.007
  0.001 -0.004  0.507  0.001  0.006
  0.000 -0.001  0.001  0.396 -0.000
  0.003  0.007  0.006 -0.000  0.501
atomic mag. moment =     2.662183
atom   17   Tr[ns(na)] (up, down, total) =   4.96987  1.13722  6.10709
   spin  1
    eigenvalues: 
  0.987  0.994  0.995  0.996  0.996
    eigenvectors:
  0.923  0.076  0.000  0.000  0.000
  0.077  0.923  0.000  0.000  0.000
  0.000  0.000  0.975  0.024  0.001
  0.000  0.000  0.000  0.036  0.963
  0.000  0.000  0.025  0.940  0.035
    occupations:
  0.988 -0.002 -0.000 -0.000 -0.000
 -0.002  0.994 -0.000 -0.000  0.000
 -0.000 -0.000  0.995 -0.000  0.000
 -0.000 -0.000 -0.000  0.996 -0.000
 -0.000  0.000  0.000 -0.000  0.996
   spin  2
    eigenvalues: 
  0.189  0.193  0.216  0.247  0.291
    eigenvectors:
  0.000  0.035  0.005  0.000  0.960
  0.000  0.894  0.067  0.000  0.039
  0.975  0.000  0.001  0.024  0.000
  0.001  0.071  0.928  0.000  0.000
  0.024  0.000  0.000  0.975  0.000
    occupations:
  0.288  0.019  0.001  0.000 -0.000
  0.019  0.199  0.000  0.006  0.000
  0.001  0.000  0.191 -0.001  0.009
  0.000  0.006 -0.001  0.215  0.000
 -0.000  0.000  0.009  0.000  0.245
atomic mag. moment =     3.832657
atom   18   Tr[ns(na)] (up, down, total) =   4.97401  1.16286  6.13687
   spin  1
    eigenvalues: 
  0.993  0.994  0.995  0.996  0.996
    eigenvectors:
  0.999  0.000  0.000  0.000  0.000
  0.000  0.018  0.980  0.002  0.000
  0.000  0.932  0.019  0.049  0.000
  0.000  0.000  0.000  0.001  0.999
  0.000  0.050  0.000  0.949  0.001
    occupations:
  0.993  0.000  0.000  0.000 -0.000
  0.000  0.995  0.000  0.000 -0.000
  0.000  0.000  0.995 -0.000  0.000
  0.000  0.000 -0.000  0.996 -0.000
 -0.000 -0.000  0.000 -0.000  0.995
   spin  2
    eigenvalues: 
  0.200  0.202  0.222  0.253  0.287
    eigenvectors:
  0.000  0.000  0.998  0.002  0.000
  0.995  0.005  0.000  0.000  0.000
  0.005  0.995  0.000  0.000  0.000
  0.000  0.000  0.002  0.998  0.000
  0.000  0.000  0.000  0.000  1.000
    occupations:
  0.222 -0.000 -0.000  0.001 -0.000
 -0.000  0.200  0.000 -0.001  0.000
 -0.000  0.000  0.202  0.000 -0.000
  0.001 -0.001  0.000  0.253  0.000
 -0.000  0.000 -0.000  0.000  0.287
atomic mag. moment =     3.811153
atom   19   Tr[ns(na)] (up, down, total) =   4.97332  1.15933  6.13265
   spin  1
    eigenvalues: 
  0.993  0.994  0.994  0.996  0.996
    eigenvectors:
  0.983  0.016  0.000  0.000  0.001
  0.016  0.984  0.000  0.000  0.000
  0.000  0.000  0.993  0.007  0.000
  0.001  0.000  0.000  0.005  0.994
  0.000  0.000  0.007  0.988  0.005
    occupations:
  0.993  0.000  0.000 -0.000 -0.000
  0.000  0.994 -0.000  0.000  0.000
  0.000 -0.000  0.994  0.000 -0.000
 -0.000  0.000  0.000  0.996 -0.000
 -0.000  0.000 -0.000 -0.000  0.996
   spin  2
    eigenvalues: 
  0.198  0.201  0.224  0.251  0.285
    eigenvectors:
  0.000  0.013  0.987  0.000  0.000
  0.001  0.984  0.012  0.002  0.000
  0.998  0.001  0.000  0.000  0.001
  0.000  0.002  0.000  0.997  0.000
  0.001  0.000  0.000  0.000  0.999
    occupations:
  0.224 -0.003 -0.000  0.000 -0.000
 -0.003  0.202  0.000 -0.002  0.001
 -0.000  0.000  0.198  0.000 -0.002
  0.000 -0.002  0.000  0.251 -0.000
 -0.000  0.001 -0.002 -0.000  0.285
atomic mag. moment =     3.813995
atom   20   Tr[ns(na)] (up, down, total) =   4.97334  1.14809  6.12143
   spin  1
    eigenvalues: 
  0.993  0.994  0.995  0.995  0.997
    eigenvectors:
  1.000  0.000  0.000  0.000  0.000
  0.000  0.001  0.997  0.002  0.000
  0.000  0.962  0.001  0.038  0.000
  0.000  0.000  0.000  0.000  0.999
  0.000  0.037  0.002  0.960  0.000
    occupations:
  0.993 -0.000  0.000 -0.000 -0.000
 -0.000  0.995  0.000 -0.000 -0.000
  0.000  0.000  0.994 -0.000 -0.000
 -0.000 -0.000 -0.000  0.997 -0.000
 -0.000 -0.000 -0.000 -0.000  0.995
   spin  2
    eigenvalues: 
  0.194  0.195  0.223  0.248  0.287
    eigenvectors:
  0.000  0.000  1.000  0.000  0.000
  0.001  0.999  0.000  0.000  0.000
  0.999  0.001  0.000  0.000  0.000
  0.000  0.000  0.000  1.000  0.000
  0.000  0.000  0.000  0.000  1.000
    occupations:
  0.223  0.000  0.000  0.000  0.000
  0.000  0.195  0.000 -0.000 -0.000
  0.000  0.000  0.194  0.000  0.001
  0.000 -0.000  0.000  0.248  0.000
  0.000 -0.000  0.001  0.000  0.287
atomic mag. moment =     3.825255
N of occupied +U levels = 136.6771920
 --- exit write_ns ---

     negative rho (up, down):  0.593E-09 0.510E-03
 --- in v_hubbard ---
Hubbard energy    0.0000
 -------

     total cpu time spent up to now is      151.4 secs

     total energy              =   -6648.88010429 Ry
     Harris-Foulkes estimate   =   -6638.72748683 Ry
     estimated scf accuracy    <      31.65353860 Ry

     total magnetization       =    65.96 Bohr mag/cell
     absolute magnetization    =    69.84 Bohr mag/cell

     iteration #  2     ecut=    95.00 Ry     beta=0.50
     Davidson diagonalization with overlap
     ethr =  9.65E-03,  avg # of iterations =  1.0
 --- enter write_ns ---
 LDA+U parameters:
U( 1)     =  0.00000000
alpha( 1) =  0.00000000
atom    1   Tr[ns(na)] (up, down, total) =   4.97911  1.69199  6.67110
   spin  1
    eigenvalues: 
  0.995  0.996  0.996  0.996  0.997
    eigenvectors:
  0.999  0.000  0.000  0.000  0.000
  0.000  0.998  0.001  0.000  0.000
  0.000  0.001  0.995  0.003  0.000
  0.000  0.000  0.000  0.000  1.000
  0.000  0.000  0.003  0.996  0.000
    occupations:
  0.995 -0.000  0.000  0.000  0.000
 -0.000  0.996 -0.000  0.000 -0.000
  0.000 -0.000  0.996  0.000 -0.000
  0.000  0.000  0.000  0.997  0.000
  0.000 -0.000 -0.000  0.000  0.996
   spin  2
    eigenvalues: 
  0.295  0.296  0.321  0.354  0.427
    eigenvectors:
  0.000  0.000  1.000  0.000  0.000
  0.009  0.991  0.000  0.000  0.000
  0.991  0.009  0.000  0.000  0.000
  0.000  0.000  0.000  1.000  0.000
  0.000  0.000  0.000  0.000  1.000
    occupations:
  0.321 -0.000 -0.000  0.000 -0.000
 -0.000  0.296  0.000 -0.000 -0.000
 -0.000  0.000  0.295  0.000  0.000
  0.000 -0.000  0.000  0.354 -0.000
 -0.000 -0.000  0.000 -0.000  0.427
atomic mag. moment =     3.287117
atom    2   Tr[ns(na)] (up, down, total) =   4.97903  1.68711  6.66615
   spin  1
    eigenvalues: 
  0.995  0.996  0.996  0.996  0.997
    eigenvectors:
  0.999  0.000  0.000  0.000  0.001
  0.000  0.000  1.000  0.000  0.000
  0.000  0.998  0.000  0.002  0.000
  0.001  0.000  0.000  0.000  0.999
  0.000  0.002  0.000  0.997  0.000
    occupations:
  0.995  0.000  0.000 -0.000  0.000
  0.000  0.996 -0.000  0.000  0.000
  0.000 -0.000  0.996  0.000 -0.000
 -0.000  0.000  0.000  0.997 -0.000
  0.000  0.000 -0.000 -0.000  0.996
   spin  2
    eigenvalues: 
  0.295  0.296  0.319  0.353  0.424
    eigenvectors:
  0.000  0.000  1.000  0.000  0.000
  0.920  0.080  0.000  0.000  0.000
  0.079  0.920  0.000  0.000  0.000
  0.000  0.000  0.000  1.000  0.000
  0.000  0.000  0.000  0.000  1.000
    occupations:
  0.319  0.000  0.000  0.001 -0.000
  0.000  0.295 -0.000  0.000  0.000
  0.000 -0.000  0.296 -0.000  0.001
  0.001  0.000 -0.000  0.353  0.000
 -0.000  0.000  0.001  0.000  0.424
atomic mag. moment =     3.291921
atom    3   Tr[ns(na)] (up, down, total) =   4.97884  1.69836  6.67720
   spin  1
    eigenvalues: 
  0.995  0.996  0.996  0.996  0.997
    eigenvectors:
  0.999  0.001  0.000  0.000  0.001
  0.001  0.955  0.045  0.000  0.000
  0.000  0.044  0.953  0.002  0.000
  0.001  0.000  0.000  0.002  0.997
  0.000  0.000  0.002  0.996  0.002
    occupations:
  0.995  0.000  0.000  0.000  0.000
  0.000  0.996 -0.000 -0.000 -0.000
  0.000 -0.000  0.996 -0.000  0.000
  0.000 -0.000 -0.000  0.997 -0.000
  0.000 -0.000  0.000 -0.000  0.996
   spin  2
    eigenvalues: 
  0.297  0.298  0.320  0.355  0.427
    eigenvectors:
  0.000  0.000  1.000  0.000  0.000
  0.083  0.917  0.000  0.000  0.000
  0.917  0.083  0.000  0.000  0.000
  0.000  0.000  0.000  0.999  0.000
  0.000  0.000  0.000  0.000  1.000
    occupations:
  0.320  0.000 -0.000 -0.001  0.000
  0.000  0.298  0.000  0.000 -0.000
 -0.000  0.000  0.297 -0.000 -0.000
 -0.001  0.000 -0.000  0.355 -0.000
  0.000 -0.000 -0.000 -0.000  0.427
atomic mag. moment =     3.280479
atom    4   Tr[ns(na)] (up, down, total) =   4.97860  1.69626  6.67486
   spin  1
    eigenvalues: 
  0.994  0.996  0.996  0.996  0.997
    eigenvectors:
  1.000  0.000  0.000  0.000  0.000
  0.000  0.000  0.999  0.000  0.000
  0.000  0.997  0.000  0.002  0.000
  0.000  0.000  0.000  0.000  1.000
  0.000  0.002  0.000  0.998  0.000
    occupations:
  0.994 -0.000 -0.000 -0.000 -0.000
 -0.000  0.996  0.000 -0.000  0.000
 -0.000  0.000  0.996 -0.000  0.000
 -0.000 -0.000 -0.000  0.997  0.000
 -0.000  0.000  0.000  0.000  0.996
   spin  2
    eigenvalues: 
  0.296  0.297  0.321  0.355  0.427
    eigenvectors:
  0.000  0.000  1.000  0.000  0.000
  0.789  0.211  0.000  0.000  0.000
  0.211  0.789  0.000  0.000  0.000
  0.000  0.000  0.000  1.000  0.000
  0.000  0.000  0.000  0.000  1.000
    occupations:
  0.321 -0.000  0.000  0.000  0.000
 -0.000  0.297 -0.000 -0.000  0.000
  0.000 -0.000  0.297  0.000 -0.000
  0.000 -0.000  0.000  0.355  0.000
  0.000  0.000 -0.000  0.000  0.427
atomic mag. moment =     3.282339
atom    5   Tr[ns(na)] (up, down, total) =   4.95128  2.14848  7.09976
   spin  1
    eigenvalues: 
  0.989  0.990  0.990  0.991  0.992
    eigenvectors:
  0.002  0.005  0.001  0.005  0.988
  0.073  0.324  0.602  0.001  0.001
  0.377  0.265  0.352  0.000  0.006
  0.548  0.406  0.045  0.000  0.000
  0.000  0.000  0.001  0.994  0.005
    occupations:
  0.992 -0.000 -0.000 -0.000 -0.000
 -0.000  0.990 -0.000  0.000  0.000
 -0.000 -0.000  0.990  0.000 -0.000
 -0.000  0.000  0.000  0.989  0.000
 -0.000  0.000 -0.000  0.000  0.991
   spin  2
    eigenvalues: 
  0.345  0.364  0.479  0.480  0.480
    eigenvectors:
  0.000  1.000  0.000  0.000  0.000
  0.000  0.000  0.149  0.005  0.846
  0.000  0.000  0.000  0.994  0.006
  1.000  0.000  0.000  0.000  0.000
  0.000  0.000  0.851  0.001  0.148
    occupations:
  0.364  0.000 -0.000 -0.000  0.001
  0.000  0.480 -0.000 -0.000 -0.000
 -0.000 -0.000  0.480 -0.000  0.000
 -0.000 -0.000 -0.000  0.345 -0.000
  0.001 -0.000  0.000 -0.000  0.480
atomic mag. moment =     2.802800
atom    6   Tr[ns(na)] (up, down, total) =   4.95132  2.14935  7.10067
   spin  1
    eigenvalues: 
  0.989  0.990  0.990  0.991  0.992
    eigenvectors:
  0.002  0.006  0.002  0.002  0.987
  0.082  0.260  0.656  0.002  0.000
  0.485  0.215  0.291  0.000  0.009
  0.430  0.520  0.049  0.000  0.001
  0.000  0.000  0.002  0.996  0.002
    occupations:
  0.992 -0.000  0.000 -0.000  0.000
 -0.000  0.990  0.000 -0.000 -0.000
  0.000  0.000  0.990 -0.000  0.000
 -0.000 -0.000 -0.000  0.989  0.000
  0.000 -0.000  0.000  0.000  0.991
   spin  2
    eigenvalues: 
  0.345  0.364  0.480  0.480  0.481
    eigenvectors:
  0.000  1.000  0.000  0.000  0.000
  0.000  0.000  0.050  0.000  0.950
  0.000  0.000  0.043  0.953  0.003
  1.000  0.000  0.000  0.000  0.000
  0.000  0.000  0.906  0.047  0.047
    occupations:
  0.364  0.000  0.000  0.000 -0.001
  0.000  0.481  0.000 -0.000  0.000
  0.000  0.000  0.480  0.000 -0.000
  0.000 -0.000  0.000  0.345 -0.000
 -0.001  0.000 -0.000 -0.000  0.480
atomic mag. moment =     2.801966
atom    7   Tr[ns(na)] (up, down, total) =   4.95163  2.15729  7.10892
   spin  1
    eigenvalues: 
  0.989  0.990  0.990  0.991  0.992
    eigenvectors:
  0.006  0.004  0.001  0.003  0.986
  0.727  0.145  0.125  0.002  0.001
  0.232  0.113  0.648  0.000  0.007
  0.034  0.738  0.224  0.001  0.003
  0.002  0.000  0.002  0.994  0.002
    occupations:
  0.992  0.000 -0.000  0.000  0.000
  0.000  0.990  0.000  0.000  0.000
 -0.000  0.000  0.990  0.000 -0.000
  0.000  0.000  0.000  0.990  0.000
  0.000  0.000 -0.000  0.000  0.991
   spin  2
    eigenvalues: 
  0.346  0.365  0.481  0.483  0.483
    eigenvectors:
  0.000  1.000  0.000  0.000  0.000
  0.000  0.000  0.050  0.896  0.054
  0.000  0.000  0.063  0.030  0.907
  1.000  0.000  0.000  0.000  0.000
  0.000  0.000  0.887  0.074  0.040
    occupations:
  0.365 -0.000  0.000  0.000 -0.000
 -0.000  0.482  0.000 -0.000 -0.000
  0.000  0.000  0.483  0.000  0.000
  0.000 -0.000  0.000  0.346  0.000
 -0.000 -0.000  0.000  0.000  0.482
atomic mag. moment =     2.794340
atom    8   Tr[ns(na)] (up, down, total) =   4.95167  2.15955  7.11122
   spin  1
    eigenvalues: 
  0.989  0.990  0.990  0.991  0.992
    eigenvectors:
  0.007  0.002  0.001  0.002  0.988
  0.630  0.262  0.106  0.001  0.001
  0.292  0.133  0.568  0.000  0.008
  0.071  0.603  0.325  0.000  0.001
  0.001  0.001  0.000  0.996  0.002
    occupations:
  0.992  0.000  0.000  0.000 -0.000
  0.000  0.990 -0.000 -0.000 -0.000
  0.000 -0.000  0.990 -0.000 -0.000
  0.000 -0.000 -0.000  0.990  0.000
 -0.000 -0.000 -0.000  0.000  0.991
   spin  2
    eigenvalues: 
  0.346  0.365  0.482  0.483  0.484
    eigenvectors:
  0.000  1.000  0.000  0.000  0.000
  0.000  0.000  0.041  0.936  0.023
  0.000  0.000  0.014  0.016  0.969
  1.000  0.000  0.000  0.000  0.000
  0.000  0.000  0.944  0.048  0.008
    occupations:
  0.365 -0.000 -0.000  0.000  0.000
 -0.000  0.483 -0.000  0.000  0.000
 -0.000 -0.000  0.483 -0.000  0.000
  0.000  0.000 -0.000  0.346  0.000
  0.000  0.000  0.000  0.000  0.482
atomic mag. moment =     2.792114
atom    9   Tr[ns(na)] (up, down, total) =   4.95196  2.18130  7.13326
   spin  1
    eigenvalues: 
  0.989  0.989  0.989  0.990  0.994
    eigenvectors:
  0.000  0.000  0.000  0.000  1.000
  0.000  0.000  0.998  0.002  0.000
  0.079  0.921  0.000  0.000  0.000
  0.000  0.000  0.002  0.998  0.000
  0.920  0.079  0.000  0.000  0.000
    occupations:
  0.994 -0.000 -0.000 -0.000  0.000
 -0.000  0.989 -0.000 -0.000  0.000
 -0.000 -0.000  0.989 -0.000  0.000
 -0.000 -0.000 -0.000  0.990 -0.000
  0.000  0.000  0.000 -0.000  0.989
   spin  2
    eigenvalues: 
  0.339  0.388  0.482  0.486  0.487
    eigenvectors:
  1.000  0.000  0.000  0.000  0.000
  0.000  0.000  0.001  0.014  0.985
  0.000  0.000  0.086  0.903  0.011
  0.000  1.000  0.000  0.000  0.000
  0.000  0.000  0.913  0.083  0.004
    occupations:
  0.339 -0.000  0.000  0.000 -0.000
 -0.000  0.487 -0.000  0.000  0.000
  0.000 -0.000  0.486  0.000 -0.001
  0.000  0.000  0.000  0.388 -0.000
 -0.000  0.000 -0.001 -0.000  0.482
atomic mag. moment =     2.770668
atom   10   Tr[ns(na)] (up, down, total) =   4.95251  2.16005  7.11256
   spin  1
    eigenvalues: 
  0.989  0.989  0.990  0.990  0.994
    eigenvectors:
  0.000  0.000  0.000  0.000  1.000
  0.998  0.000  0.002  0.000  0.000
  0.002  0.009  0.989  0.001  0.000
  0.000  0.000  0.001  0.999  0.000
  0.000  0.991  0.009  0.001  0.000
    occupations:
  0.994  0.000 -0.000 -0.000 -0.000
  0.000  0.989  0.000  0.000  0.000
 -0.000  0.000  0.990 -0.000  0.000
 -0.000  0.000 -0.000  0.990 -0.000
 -0.000  0.000  0.000 -0.000  0.989
   spin  2
    eigenvalues: 
  0.344  0.389  0.474  0.476  0.477
    eigenvectors:
  1.000  0.000  0.000  0.000  0.000
  0.000  0.000  0.002  0.996  0.002
  0.000  0.000  0.030  0.002  0.969
  0.000  1.000  0.000  0.000  0.000
  0.000  0.000  0.968  0.003  0.029
    occupations:
  0.344  0.000  0.000 -0.000 -0.000
  0.000  0.476 -0.000 -0.000 -0.000
  0.000 -0.000  0.477  0.000 -0.000
 -0.000 -0.000  0.000  0.389  0.000
 -0.000 -0.000 -0.000  0.000  0.474
atomic mag. moment =     2.792461
atom   11   Tr[ns(na)] (up, down, total) =   4.95315  2.17452  7.12767
   spin  1
    eigenvalues: 
  0.989  0.990  0.990  0.991  0.994
    eigenvectors:
  0.000  0.000  0.000  0.000  1.000
  0.000  0.000  0.987  0.012  0.000
  0.024  0.976  0.000  0.000  0.000
  0.001  0.000  0.012  0.986  0.000
  0.975  0.024  0.000  0.001  0.000
    occupations:
  0.994  0.000 -0.000  0.000 -0.000
  0.000  0.990 -0.000  0.000  0.000
 -0.000 -0.000  0.990  0.000 -0.000
  0.000  0.000  0.000  0.991 -0.000
 -0.000  0.000 -0.000 -0.000  0.989
   spin  2
    eigenvalues: 
  0.344  0.390  0.478  0.481  0.482
    eigenvectors:
  1.000  0.000  0.000  0.000  0.000
  0.000  0.000  0.001  0.063  0.936
  0.000  0.000  0.093  0.845  0.062
  0.000  1.000  0.000  0.000  0.000
  0.000  0.000  0.906  0.092  0.002
    occupations:
  0.344  0.000  0.000 -0.000  0.000
  0.000  0.482  0.000  0.000 -0.000
  0.000  0.000  0.481 -0.000  0.001
 -0.000  0.000 -0.000  0.390  0.000
  0.000 -0.000  0.001  0.000  0.478
atomic mag. moment =     2.778633
atom   12   Tr[ns(na)] (up, down, total) =   4.95237  2.16083  7.11320
   spin  1
    eigenvalues: 
  0.989  0.989  0.990  0.990  0.994
    eigenvectors:
  0.000  0.000  0.000  0.000  1.000
  0.002  0.998  0.000  0.000  0.000
  0.011  0.000  0.989  0.000  0.000
  0.001  0.000  0.000  0.999  0.000
  0.986  0.002  0.011  0.001  0.000
    occupations:
  0.994 -0.000  0.000 -0.000 -0.000
 -0.000  0.989  0.000  0.000 -0.000
  0.000  0.000  0.990 -0.000 -0.000
 -0.000  0.000 -0.000  0.990 -0.000
 -0.000 -0.000 -0.000 -0.000  0.989
   spin  2
    eigenvalues: 
  0.347  0.390  0.473  0.475  0.476
    eigenvectors:
  1.000  0.000  0.000  0.000  0.000
  0.000  0.000  0.003  0.987  0.010
  0.000  0.000  0.026  0.008  0.966
  0.000  1.000  0.000  0.000  0.000
  0.000  0.000  0.971  0.005  0.024
    occupations:
  0.347  0.000 -0.000 -0.000 -0.000
  0.000  0.475 -0.000  0.000  0.000
 -0.000 -0.000  0.476 -0.000  0.001
 -0.000  0.000 -0.000  0.390  0.000
 -0.000  0.000  0.001  0.000  0.473
atomic mag. moment =     2.791535
atom   13   Tr[ns(na)] (up, down, total) =   4.95141  2.14601  7.09742
   spin  1
    eigenvalues: 
  0.989  0.989  0.990  0.991  0.993
    eigenvectors:
  0.001  0.001  0.001  0.034  0.964
  0.007  0.704  0.264  0.023  0.002
  0.531  0.087  0.379  0.001  0.002
  0.459  0.189  0.352  0.000  0.000
  0.002  0.019  0.004  0.943  0.032
    occupations:
  0.993  0.000  0.000 -0.000 -0.000
  0.000  0.990 -0.000  0.000 -0.000
  0.000 -0.000  0.989 -0.000 -0.000
 -0.000  0.000 -0.000  0.989 -0.000
 -0.000 -0.000 -0.000 -0.000  0.991
   spin  2
    eigenvalues: 
  0.345  0.362  0.469  0.483  0.487
    eigenvectors:
  0.000  0.999  0.000  0.000  0.000
  0.000  0.000  0.380  0.604  0.016
  0.000  0.000  0.256  0.264  0.480
  1.000  0.000  0.000  0.000  0.000
  0.000  0.000  0.363  0.132  0.504
    occupations:
  0.362  0.000  0.002 -0.000  0.002
  0.000  0.478 -0.004 -0.001 -0.006
  0.002 -0.004  0.481 -0.000 -0.006
 -0.000 -0.001 -0.000  0.345 -0.000
  0.002 -0.006 -0.006 -0.000  0.480
atomic mag. moment =     2.805400
atom   14   Tr[ns(na)] (up, down, total) =   4.95170  2.14846  7.10016
   spin  1
    eigenvalues: 
  0.989  0.990  0.990  0.991  0.993
    eigenvectors:
  0.000  0.002  0.001  0.029  0.968
  0.016  0.685  0.272  0.024  0.003
  0.662  0.044  0.292  0.000  0.002
  0.316  0.256  0.423  0.004  0.000
  0.005  0.013  0.012  0.943  0.026
    occupations:
  0.993  0.000 -0.000 -0.000  0.000
  0.000  0.990  0.000  0.000  0.000
 -0.000  0.000  0.989  0.000 -0.000
 -0.000  0.000  0.000  0.989  0.000
  0.000  0.000 -0.000  0.000  0.991
   spin  2
    eigenvalues: 
  0.345  0.362  0.469  0.483  0.488
    eigenvectors:
  0.000  0.999  0.000  0.000  0.000
  0.000  0.000  0.367  0.624  0.009
  0.000  0.000  0.254  0.223  0.522
  1.000  0.000  0.000  0.000  0.000
  0.000  0.000  0.378  0.153  0.469
    occupations:
  0.362  0.000 -0.001 -0.000 -0.002
  0.000  0.478  0.004 -0.001  0.006
 -0.001  0.004  0.482  0.000 -0.007
 -0.000 -0.001  0.000  0.345 -0.000
 -0.002  0.006 -0.007 -0.000  0.480
atomic mag. moment =     2.803244
atom   15   Tr[ns(na)] (up, down, total) =   4.95372  2.14548  7.09920
   spin  1
    eigenvalues: 
  0.990  0.990  0.990  0.991  0.993
    eigenvectors:
  0.002  0.006  0.014  0.015  0.964
  0.989  0.000  0.000  0.007  0.003
  0.000  0.470  0.511  0.002  0.018
  0.000  0.524  0.473  0.002  0.001
  0.009  0.000  0.002  0.974  0.015
    occupations:
  0.993 -0.000  0.000 -0.000  0.000
 -0.000  0.990 -0.000  0.000 -0.000
  0.000 -0.000  0.990 -0.000  0.000
 -0.000  0.000 -0.000  0.990  0.000
  0.000 -0.000  0.000  0.000  0.991
   spin  2
    eigenvalues: 
  0.347  0.361  0.466  0.483  0.489
    eigenvectors:
  0.004  0.996  0.000  0.000  0.000
  0.000  0.000  0.304  0.244  0.452
  0.000  0.000  0.318  0.663  0.018
  0.996  0.004  0.000  0.000  0.000
  0.000  0.000  0.377  0.093  0.530
    occupations:
  0.361 -0.001 -0.001  0.001 -0.003
 -0.001  0.481  0.005  0.001 -0.009
 -0.001  0.005  0.478  0.001  0.007
  0.001  0.001  0.001  0.347  0.000
 -0.003 -0.009  0.007  0.000  0.480
atomic mag. moment =     2.808240
atom   16   Tr[ns(na)] (up, down, total) =   4.95390  2.14578  7.09968
   spin  1
    eigenvalues: 
  0.990  0.990  0.990  0.991  0.993
    eigenvectors:
  0.003  0.007  0.011  0.014  0.964
  0.987  0.003  0.000  0.006  0.004
  0.001  0.534  0.446  0.004  0.016
  0.002  0.457  0.540  0.001  0.000
  0.007  0.000  0.003  0.975  0.015
    occupations:
  0.993 -0.000 -0.000 -0.000 -0.000
 -0.000  0.990  0.000  0.000  0.000
 -0.000  0.000  0.990  0.000  0.000
 -0.000  0.000  0.000  0.990 -0.000
 -0.000  0.000  0.000 -0.000  0.991
   spin  2
    eigenvalues: 
  0.347  0.361  0.466  0.483  0.489
    eigenvectors:
  0.004  0.996  0.000  0.000  0.000
  0.000  0.000  0.294  0.308  0.398
  0.000  0.000  0.319  0.635  0.046
  0.996  0.004  0.000  0.000  0.000
  0.000  0.001  0.387  0.057  0.556
    occupations:
  0.361 -0.000  0.000  0.001  0.003
 -0.000  0.480 -0.005  0.000  0.009
  0.000 -0.005  0.478 -0.001  0.007
  0.001  0.000 -0.001  0.347 -0.000
  0.003  0.009  0.007 -0.000  0.480
atomic mag. moment =     2.808122
atom   17   Tr[ns(na)] (up, down, total) =   4.97478  1.71954  6.69432
   spin  1
    eigenvalues: 
  0.989  0.996  0.996  0.997  0.997
    eigenvectors:
  0.927  0.073  0.000  0.000  0.000
  0.073  0.926  0.000  0.001  0.000
  0.000  0.000  1.000  0.000  0.000
  0.000  0.001  0.000  0.998  0.001
  0.000  0.000  0.000  0.001  0.999
    occupations:
  0.990 -0.002 -0.000 -0.000 -0.000
 -0.002  0.995 -0.000 -0.000  0.000
 -0.000 -0.000  0.996 -0.000 -0.000
 -0.000 -0.000 -0.000  0.997  0.000
 -0.000  0.000 -0.000  0.000  0.997
   spin  2
    eigenvalues: 
  0.291  0.293  0.334  0.389  0.412
    eigenvectors:
  0.000  0.018  0.000  0.000  0.981
  0.002  0.971  0.008  0.000  0.019
  0.985  0.002  0.000  0.012  0.000
  0.000  0.008  0.992  0.000  0.000
  0.012  0.000  0.000  0.988  0.000
    occupations:
  0.410  0.016  0.001 -0.001 -0.000
  0.016  0.295  0.000  0.004  0.000
  0.001  0.000  0.292 -0.000  0.011
 -0.001  0.004 -0.000  0.334  0.000
 -0.000  0.000  0.011  0.000  0.388
atomic mag. moment =     3.255243
atom   18   Tr[ns(na)] (up, down, total) =   4.97888  1.72469  6.70357
   spin  1
    eigenvalues: 
  0.995  0.996  0.996  0.996  0.996
    eigenvectors:
  0.995  0.000  0.000  0.000  0.005
  0.000  0.997  0.002  0.000  0.001
  0.000  0.002  0.967  0.031  0.000
  0.005  0.001  0.000  0.002  0.993
  0.000  0.000  0.031  0.967  0.001
    occupations:
  0.995  0.000  0.000  0.000  0.000
  0.000  0.996  0.000 -0.000 -0.000
[...]
     0.0878   0.0781   0.0703   0.0435   0.0336   0.0296   0.0275   0.0226
     0.0014   0.0010   0.0004   0.0004   0.0002   0.0001   0.0001   0.0000
     0.0000   0.0000   0.0000   0.0000   0.0000   0.0000   0.0000   0.0000
     0.0000   0.0000   0.0000   0.0000   0.0000   0.0000   0.0000   0.0000
     0.0000   0.0000   0.0000   0.0000   0.0000   0.0000   0.0000   0.0000
     0.0000   0.0000   0.0000   0.0000   0.0000   0.0000   0.0000   0.0000
     0.0000   0.0000   0.0000   0.0000   0.0000

     the Fermi energy is     5.7486 ev

!    total energy              =   -6653.34142886 Ry
     Harris-Foulkes estimate   =   -6653.34142887 Ry
     estimated scf accuracy    <          5.7E-09 Ry

     total all-electron energy =    -51711.373268 Ry

     The total energy is the sum of the following terms:

     one-electron contribution =  -25408.17933593 Ry
     hartree contribution      =   12770.97953794 Ry
     xc contribution           =    -704.71378419 Ry
     ewald contribution        =    8255.61690597 Ry
     Hubbard energy            =       0.00000000 Ry
     one-center paw contrib.   =   -1567.13904003 Ry
     smearing contrib. (-TS)   =       0.09428738 Ry

     total magnetization       =    51.70 Bohr mag/cell
     absolute magnetization    =    53.93 Bohr mag/cell

     convergence has been achieved in  28 iterations

     Forces acting on atoms (Ry/au):


     negative rho (up, down):  0.184E-05 0.124E-02
     atom    1 type  1   force =     0.00017333    0.00000899    0.00347272
     atom    2 type  1   force =     0.00009422   -0.00000704    0.00354642
     atom    3 type  1   force =    -0.00012051    0.00000978    0.00348030
     atom    4 type  1   force =    -0.00007120   -0.00000865    0.00353715
     atom    5 type  1   force =    -0.00016170   -0.00020983   -0.00733501
     atom    6 type  1   force =    -0.00016343    0.00020388   -0.00729121
     atom    7 type  1   force =     0.00023204   -0.00033747   -0.00724163
     atom    8 type  1   force =     0.00023953    0.00034576   -0.00722835
     atom    9 type  1   force =    -0.00031256    0.00002135    0.00467673
     atom   10 type  1   force =    -0.00053704    0.00005730    0.00395573
     atom   11 type  1   force =     0.00027459   -0.00004167    0.00401812
     atom   12 type  1   force =     0.00046150    0.00012525    0.00231516
     atom   13 type  1   force =    -0.00004481    0.00001344    0.00002645
     atom   14 type  1   force =    -0.00003405   -0.00003791    0.00001124
     atom   15 type  1   force =    -0.00001705   -0.00002786   -0.00002805
     atom   16 type  1   force =    -0.00002894   -0.00006011    0.00002798
     atom   17 type  1   force =     0.00000370   -0.00001739    0.00003239
     atom   18 type  1   force =     0.00000471   -0.00001537   -0.00001663
     atom   19 type  1   force =    -0.00002574   -0.00002797   -0.00000501
     atom   20 type  1   force =     0.00001647   -0.00001736   -0.00005284
     atom   21 type  2   force =     0.00002412   -0.00001070    0.00004634
     atom   22 type  3   force =    -0.00000633    0.00002434    0.00002475
     atom   23 type  3   force =    -0.00000088    0.00000926    0.00002728
     The non-local contrib.  to forces
     atom    1 type  1   force =    -0.00065255   -0.00005368   -0.38408891
     atom    2 type  1   force =    -0.00000586    0.00005770   -0.38599487
     atom    3 type  1   force =     0.00087220   -0.00001687   -0.38502619
     atom    4 type  1   force =    -0.00013654   -0.00000546   -0.38809913
     atom    5 type  1   force =     0.00116437    0.00077145   -0.03527960
     atom    6 type  1   force =     0.00124336   -0.00078327   -0.03521628
     atom    7 type  1   force =    -0.00107548    0.00214542   -0.03494470
     atom    8 type  1   force =    -0.00117793   -0.00216021   -0.03494197
     atom    9 type  1   force =    -0.00022223   -0.00005212    0.00640684
     atom   10 type  1   force =    -0.00104042   -0.00010176   -0.00045938
     atom   11 type  1   force =    -0.00108853   -0.00002646    0.00123688
     atom   12 type  1   force =     0.00046168   -0.00004662   -0.00655245
     atom   13 type  1   force =     0.01660849    0.01727383    0.02288888
     atom   14 type  1   force =     0.01679488   -0.01708979    0.02281622
     atom   15 type  1   force =    -0.01544513    0.01677197    0.02564245
     atom   16 type  1   force =    -0.01587475   -0.01659198    0.02588393
     atom   17 type  1   force =    -0.02937783   -0.00122244    0.36746472
     atom   18 type  1   force =    -0.00285929    0.00259188    0.37046169
     atom   19 type  1   force =     0.03320965    0.00033766    0.40755060
     atom   20 type  1   force =     0.00522541    0.00008536    0.35620053
     atom   21 type  2   force =     0.24164348   -0.01001519    0.10223492
     atom   22 type  3   force =    -0.03143770   -0.03998186   -0.02719597
     atom   23 type  3   force =    -0.02866694    0.04304320   -0.02577400
     The ionic contribution  to forces
     atom    1 type  1   force =    -0.01200279   -0.00118721 -260.13157375
     atom    2 type  1   force =    -0.01207184    0.00122333 -260.12079710
     atom    3 type  1   force =     0.01205649   -0.00125234 -260.12256388
     atom    4 type  1   force =     0.01212627    0.00128736 -260.10335138
     atom    5 type  1   force =     0.03700185    0.04169855 -140.17184594
     atom    6 type  1   force =     0.03754799   -0.04206953 -140.16033144
     atom    7 type  1   force =    -0.03798453    0.04220249 -140.04829533
     atom    8 type  1   force =    -0.03868468   -0.04299607 -140.03547264
     atom    9 type  1   force =    -0.23002828   -0.01750472   -5.44591409
     atom   10 type  1   force =    -0.22594839    0.02496350   -5.80398492
     atom   11 type  1   force =     0.24323221   -0.02158271   -5.79509061
     atom   12 type  1   force =     0.24030690    0.02790130   -5.42112711
     atom   13 type  1   force =    -0.01794052    0.13851544  128.74192224
     atom   14 type  1   force =    -0.06848236   -0.13828201  128.84665090
     atom   15 type  1   force =    -0.00377244   -0.23671562  129.75989950
     atom   16 type  1   force =     0.04170256    0.22419466  129.86836724
     atom   17 type  1   force =     0.18674706   -0.07742107  247.52403662
     atom   18 type  1   force =    -0.15263807    0.10628472  248.64314930
     atom   19 type  1   force =     0.47563718   -0.01892280  248.76607637
     atom   20 type  1   force =     0.21457810    0.01607820  249.54248684
     atom   21 type  2   force =    -2.48457059    0.06309153   85.82569534
     atom   22 type  3   force =     0.93843294    1.32514340   12.88374659
     atom   23 type  3   force =     0.84475495   -1.41465040   12.95831726
     The local contribution  to forces
     atom    1 type  1   force =     0.01282282    0.00125079  260.53185537
     atom    2 type  1   force =     0.01222433   -0.00128709  260.52300651
     atom    3 type  1   force =    -0.01300300    0.00128290  260.52376558
     atom    4 type  1   force =    -0.01205744   -0.00129058  260.50758197
     atom    5 type  1   force =    -0.03831389   -0.04260661  140.20005486
     atom    6 type  1   force =    -0.03893966    0.04297604  140.18852371
     atom    7 type  1   force =     0.03922541   -0.04459090  140.07631060
     atom    8 type  1   force =     0.04003820    0.04540500  140.06350049
     atom    9 type  1   force =     0.22995554    0.01757473    5.44396397
     atom   10 type  1   force =     0.22637455   -0.02480071    5.80808009
     atom   11 type  1   force =    -0.24179988    0.02156001    5.79748483
     atom   12 type  1   force =    -0.24037279   -0.02774419    5.42962189
     atom   13 type  1   force =     0.00140217   -0.15559245 -128.76489103
     atom   14 type  1   force =     0.05178790    0.15513931 -128.86957431
     atom   15 type  1   force =     0.01888583    0.22024792 -129.78597290
     atom   16 type  1   force =    -0.02619389   -0.20799855 -129.89465659
     atom   17 type  1   force =    -0.15773122    0.07869761 -247.90201873
     atom   18 type  1   force =     0.15546091   -0.10892445 -249.02596182
     atom   19 type  1   force =    -0.50904123    0.01853556 -249.18615061
     atom   20 type  1   force =    -0.21970443   -0.01616343 -249.91128979
     atom   21 type  2   force =     2.25120349   -0.05340808  -85.92542302
     atom   22 type  3   force =    -0.90700260   -1.28513690  -12.85652957
     atom   23 type  3   force =    -0.81608998    1.37161546  -12.93251979
     The core correction contribution to forces
     atom    1 type  1   force =     0.00000481   -0.00000116   -0.01285364
     atom    2 type  1   force =    -0.00005346   -0.00000171   -0.01280789
     atom    3 type  1   force =    -0.00004663   -0.00000422   -0.01283689
     atom    4 type  1   force =    -0.00000385   -0.00000066   -0.01273468
     atom    5 type  1   force =    -0.00002259   -0.00007293   -0.00041341
     atom    6 type  1   force =    -0.00002393    0.00008013   -0.00041636
     atom    7 type  1   force =     0.00007284   -0.00009449   -0.00046102
     atom    8 type  1   force =     0.00007026    0.00009662   -0.00046284
     atom    9 type  1   force =    -0.00001956    0.00000289    0.00011153
     atom   10 type  1   force =     0.00007539   -0.00000385    0.00021235
     atom   11 type  1   force =    -0.00006914    0.00000668    0.00027592
     atom   12 type  1   force =     0.00006592    0.00001480    0.00026753
     atom   13 type  1   force =    -0.00012485   -0.00017707    0.00008976
     atom   14 type  1   force =    -0.00014432    0.00018779    0.00010190
     atom   15 type  1   force =     0.00032220   -0.00032530    0.00038494
     atom   16 type  1   force =     0.00034495    0.00032810    0.00041484
     atom   17 type  1   force =     0.00036504   -0.00007132    0.01058709
     atom   18 type  1   force =     0.00003978    0.00003220    0.01239137
     atom   19 type  1   force =     0.00016618    0.00002115    0.01257600
     atom   20 type  1   force =    -0.00008288   -0.00001759    0.01260795
     atom   21 type  2   force =    -0.00825919    0.00032091   -0.00243659
     atom   22 type  3   force =     0.00000000    0.00000000    0.00000000
     atom   23 type  3   force =     0.00000000    0.00000000    0.00000000
     The Hubbard contrib.    to forces
     atom    1 type  1   force =     0.00000000    0.00000000   -0.00000000
     atom    2 type  1   force =    -0.00000000   -0.00000000   -0.00000000
     atom    3 type  1   force =    -0.00000000   -0.00000000   -0.00000000
     atom    4 type  1   force =     0.00000000    0.00000000   -0.00000000
     atom    5 type  1   force =    -0.00000000   -0.00000000   -0.00000000
     atom    6 type  1   force =    -0.00000000    0.00000000    0.00000000
     atom    7 type  1   force =     0.00000000   -0.00000000    0.00000000
     atom    8 type  1   force =     0.00000000    0.00000000    0.00000000
     atom    9 type  1   force =     0.00000000   -0.00000000   -0.00000000
     atom   10 type  1   force =     0.00000000   -0.00000000   -0.00000000
     atom   11 type  1   force =    -0.00000000    0.00000000   -0.00000000
     atom   12 type  1   force =    -0.00000000   -0.00000000   -0.00000000
     atom   13 type  1   force =     0.00000000    0.00000000    0.00000000
     atom   14 type  1   force =     0.00000000   -0.00000000    0.00000000
     atom   15 type  1   force =    -0.00000000    0.00000000    0.00000000
     atom   16 type  1   force =    -0.00000000   -0.00000000    0.00000000
     atom   17 type  1   force =     0.00000000   -0.00000000    0.00000000
     atom   18 type  1   force =    -0.00000000    0.00000000    0.00000000
     atom   19 type  1   force =     0.00000000    0.00000000    0.00000000
     atom   20 type  1   force =     0.00000000    0.00000000    0.00000000
     atom   21 type  2   force =    -0.00000000    0.00000000    0.00000000
     atom   22 type  3   force =    -0.00000000    0.00000000    0.00000000
     atom   23 type  3   force =    -0.00000000   -0.00000000    0.00000000
     The SCF correction term to forces
     atom    1 type  1   force =     0.00000000    0.00000000    0.00000000
     atom    2 type  1   force =     0.00000000    0.00000000    0.00000000
     atom    3 type  1   force =     0.00000000    0.00000000    0.00000000
     atom    4 type  1   force =     0.00000000    0.00000000    0.00000000
     atom    5 type  1   force =     0.00000000    0.00000000    0.00000000
     atom    6 type  1   force =     0.00000000    0.00000000    0.00000000
     atom    7 type  1   force =     0.00000000    0.00000000    0.00000000
     atom    8 type  1   force =     0.00000000    0.00000000    0.00000000
     atom    9 type  1   force =     0.00000000    0.00000000    0.00000000
     atom   10 type  1   force =     0.00000000    0.00000000    0.00000000
     atom   11 type  1   force =     0.00000000    0.00000000    0.00000000
     atom   12 type  1   force =     0.00000000    0.00000000    0.00000000
     atom   13 type  1   force =     0.00000904   -0.00000663    0.00000416
     atom   14 type  1   force =     0.00000900    0.00000646    0.00000409
     atom   15 type  1   force =    -0.00000836   -0.00000717    0.00000552
     atom   16 type  1   force =    -0.00000865    0.00000732    0.00000612
     atom   17 type  1   force =    -0.00000021   -0.00000050   -0.00004975
     atom   18 type  1   force =     0.00000053   -0.00000005   -0.00006962
     atom   19 type  1   force =     0.00000162    0.00000012   -0.00006982
     atom   20 type  1   force =    -0.00000057   -0.00000025   -0.00007081
     atom   21 type  2   force =     0.00000607   -0.00000020   -0.00003675
     atom   22 type  3   force =     0.00000019   -0.00000064   -0.00000874
     atom   23 type  3   force =     0.00000024    0.00000066   -0.00000864

     Total force =     0.000156     Total SCF correction =     0.000139
     SCF correction compared to forces is large: reduce conv_thr to get better values


     entering subroutine stress ...


     negative rho (up, down):  0.184E-05 0.124E-02
          total   stress  (Ry/bohr**3)                   (kbar)     P=  -14.43
  -0.00015059  -0.00000008  -0.00000002        -22.15     -0.01     -0.00
  -0.00000008  -0.00014559  -0.00000010         -0.01    -21.42     -0.01
  -0.00000002  -0.00000010   0.00000191         -0.00     -0.01      0.28

     kinetic stress (kbar)  32051.31     -0.70    -23.20
                               -0.70  32023.09      0.02
                              -23.20      0.02  31949.23

     local   stress (kbar)-842567.61     -2.49    113.70
                               -2.49-842592.36     11.36
                              113.70     11.36 892415.58

     nonloc. stress (kbar) -24595.05     -0.08      1.20
                               -0.08 -24598.29      0.13
                                1.20      0.13 -24525.79

     hartree stress (kbar) 446674.47      0.87    -50.18
                                0.87 446678.62     -4.25
                              -50.18     -4.25-411426.92

     exc-cor stress (kbar)  -1004.81      0.00      0.10
                                0.00  -1004.64     -0.01
                                0.10     -0.01  -1009.74

     corecor stress (kbar)  -6682.07      0.01      0.27
                                0.01  -6681.70      0.00
                                0.27      0.00  -6680.89

     ewald   stress (kbar) 396101.60      2.37    -41.90
                                2.37 396153.86     -7.27
                              -41.90     -7.27-480721.19

     hubbard stress (kbar)     -0.00     -0.00      0.00
                               -0.00     -0.00     -0.00
                                0.00     -0.00     -0.00

     london  stress (kbar)      0.00      0.00      0.00
                                0.00      0.00      0.00
                                0.00      0.00      0.00

     dft-nl  stress (kbar)      0.00      0.00      0.00
                                0.00      0.00      0.00
                                0.00      0.00      0.00



     Writing output data file Fe_100_2x2_H2S_top_25ML.save
 
     init_run     :     50.01s CPU     53.19s WALL (       1 calls)
     electrons    :   2182.22s CPU   2370.30s WALL (       1 calls)
     forces       :     77.82s CPU     79.01s WALL (       1 calls)
     stress       :    370.88s CPU    380.69s WALL (       1 calls)

     Called by init_run:
     wfcinit      :     28.48s CPU     31.45s WALL (       1 calls)
     potinit      :      2.47s CPU      2.51s WALL (       1 calls)

     Called by electrons:
     c_bands      :   1103.50s CPU   1155.67s WALL (      28 calls)
     sum_band     :    570.76s CPU    592.75s WALL (      28 calls)
     v_of_rho     :     21.17s CPU     21.67s WALL (      29 calls)
     v_h          :      1.09s CPU      1.09s WALL (      29 calls)
     v_xc         :     21.47s CPU     21.99s WALL (      31 calls)
     newd         :    331.70s CPU    332.70s WALL (      29 calls)
     mix_rho      :    116.60s CPU    116.96s WALL (      28 calls)

     Called by c_bands:
     init_us_2    :      6.93s CPU      6.96s WALL (     350 calls)
     cegterg      :   1051.31s CPU   1073.39s WALL (     140 calls)

     Called by sum_band:
     sum_band:bec :      0.29s CPU      0.29s WALL (     140 calls)
     addusdens    :    372.74s CPU    373.47s WALL (      28 calls)

     Called by *egterg:
     h_psi        :    789.51s CPU    791.49s WALL (     639 calls)
     s_psi        :     56.89s CPU     57.02s WALL (     694 calls)
     g_psi        :      1.35s CPU      1.38s WALL (     494 calls)
     cdiaghg      :     74.33s CPU     74.73s WALL (     634 calls)
     cegterg:over :     58.08s CPU     58.22s WALL (     494 calls)
     cegterg:upda :     44.84s CPU     45.07s WALL (     494 calls)
     cegterg:last :     25.73s CPU     25.76s WALL (     140 calls)
     cdiaghg:chol :      3.65s CPU      3.65s WALL (     634 calls)
     cdiaghg:inve :      1.23s CPU      1.25s WALL (     634 calls)
     cdiaghg:para :     14.69s CPU     14.77s WALL (    1268 calls)

     Called by h_psi:
     h_psi:vloc   :    532.17s CPU    533.97s WALL (     639 calls)
     h_psi:vnl    :    101.19s CPU    101.25s WALL (     639 calls)
     add_vuspsi   :     49.16s CPU     49.16s WALL (     639 calls)
     vhpsi        :    153.41s CPU    153.57s WALL (     639 calls)

     General routines
     calbec       :    173.34s CPU    173.59s WALL (    2753 calls)
     fft          :     24.37s CPU     24.67s WALL (     933 calls)
     ffts         :     52.33s CPU     52.60s WALL (   10241 calls)
     fftw         :    528.49s CPU    530.06s WALL (   74072 calls)
     interpolate  :      3.88s CPU      3.94s WALL (     114 calls)
     davcio       :     12.95s CPU     75.07s WALL (    1025 calls)
 
     Parallel routines
     fft_scatter  :    272.43s CPU    273.95s WALL (   85246 calls)
     ALLTOALL     :     18.10s CPU     18.22s WALL (   73812 calls)
     Hubbard U routines
     new_ns       :     18.67s CPU     33.42s WALL (      28 calls)
     vhpsi        :    153.41s CPU    153.57s WALL (     639 calls)
     force_hub    :     20.45s CPU     21.30s WALL (       1 calls)
     stres_hub    :    196.41s CPU    205.91s WALL (       1 calls)
 
     PAW routines
     PAW_pot      :      7.15s CPU      7.19s WALL (      29 calls)
     PAW_ddot     :      6.04s CPU      6.09s WALL (     976 calls)
 
     PWSCF        : 44m56.60s CPU    48m57.31s WALL

 
   This run was terminated on:   5:42: 8  12Dec2015            

=------------------------------------------------------------------------------=
   JOB DONE.
=------------------------------------------------------------------------------=
Application 19354489 resources: utime ~136306s, stime ~4072s, Rss ~620900, inblocks ~6078461139, outblocks ~969152505
