
     Program PROJWFC v.5.0.2 (svn rev. 9656) starts on 12Dec2015 at  5:42:19 

     This program is part of the open-source Quantum ESPRESSO suite
     for quantum simulation of materials; please cite
         "P. Giannozzi et al., J. Phys.:Condens. Matter 21 395502 (2009);
          URL http://www.quantum-espresso.org", 
     in publications or presentations arising from this work. More details at
     http://www.quantum-espresso.org/quote.php

     Parallel version (MPI & OpenMP), running on      48 processor cores
     Number of MPI processes:                48
     Threads/MPI process:                     1
     K-points division:     npool     =       4
     R & G space division:  proc/nbgrp/npool/nimage =      12

   Info: using nr1, nr2, nr3 values from input

   Info: using nr1s, nr2s, nr3s values from input

     IMPORTANT: XC functional enforced from input :
     Exchange-correlation      = PBE ( 1 4 3 4 0)
     EXX-fraction              =        0.00
     Any further DFT definition will be discarded
     Please, verify this is what you really want

               file Fe.pbe-spn-kjpaw_psl.0.2.1.UPF: wavefunction(s)  3D renormalized
               file S.pbe-n-kjpaw_psl.0.1.UPF: wavefunction(s)  3P renormalized
               file H.pbe-kjpaw_psl.0.1.upf: wavefunction(s)  1S renormalized
 
     Parallelization info
     --------------------
     sticks:   dense  smooth     PW     G-vecs:    dense   smooth      PW
     Min         608     288     79               124119    40608    5765
     Max         610     289     80               124128    40659    5774
     Sum        7305    3457    949              1489451   487579   69203
 

     Check: negative/imaginary core charge=   -0.000011    0.000000

     negative rho (up, down):  0.184E-05 0.124E-02

     Gaussian broadening (read from input): ngauss,degauss=   0    0.010000


     Calling pprojwave .... 
 
  Problem Sizes 
  natomwfc =          266
  nbnd     =          197
  nkstot   =           20
  npwx     =         5107
  nkb      =          372
 

     Atomic states used for projection
     (read from pseudopotential files):

     state #   1: atom   1 (Fe ), wfc  1 (l=0 m= 1)
     state #   2: atom   1 (Fe ), wfc  2 (l=0 m= 1)
     state #   3: atom   1 (Fe ), wfc  3 (l=1 m= 1)
     state #   4: atom   1 (Fe ), wfc  3 (l=1 m= 2)
     state #   5: atom   1 (Fe ), wfc  3 (l=1 m= 3)
     state #   6: atom   1 (Fe ), wfc  4 (l=1 m= 1)
     state #   7: atom   1 (Fe ), wfc  4 (l=1 m= 2)
     state #   8: atom   1 (Fe ), wfc  4 (l=1 m= 3)
     state #   9: atom   1 (Fe ), wfc  5 (l=2 m= 1)
     state #  10: atom   1 (Fe ), wfc  5 (l=2 m= 2)
     state #  11: atom   1 (Fe ), wfc  5 (l=2 m= 3)
     state #  12: atom   1 (Fe ), wfc  5 (l=2 m= 4)
     state #  13: atom   1 (Fe ), wfc  5 (l=2 m= 5)
     state #  14: atom   2 (Fe ), wfc  1 (l=0 m= 1)
     state #  15: atom   2 (Fe ), wfc  2 (l=0 m= 1)
     state #  16: atom   2 (Fe ), wfc  3 (l=1 m= 1)
     state #  17: atom   2 (Fe ), wfc  3 (l=1 m= 2)
     state #  18: atom   2 (Fe ), wfc  3 (l=1 m= 3)
     state #  19: atom   2 (Fe ), wfc  4 (l=1 m= 1)
     state #  20: atom   2 (Fe ), wfc  4 (l=1 m= 2)
     state #  21: atom   2 (Fe ), wfc  4 (l=1 m= 3)
     state #  22: atom   2 (Fe ), wfc  5 (l=2 m= 1)
     state #  23: atom   2 (Fe ), wfc  5 (l=2 m= 2)
     state #  24: atom   2 (Fe ), wfc  5 (l=2 m= 3)
     state #  25: atom   2 (Fe ), wfc  5 (l=2 m= 4)
     state #  26: atom   2 (Fe ), wfc  5 (l=2 m= 5)
     state #  27: atom   3 (Fe ), wfc  1 (l=0 m= 1)
     state #  28: atom   3 (Fe ), wfc  2 (l=0 m= 1)
     state #  29: atom   3 (Fe ), wfc  3 (l=1 m= 1)
     state #  30: atom   3 (Fe ), wfc  3 (l=1 m= 2)
     state #  31: atom   3 (Fe ), wfc  3 (l=1 m= 3)
     state #  32: atom   3 (Fe ), wfc  4 (l=1 m= 1)
     state #  33: atom   3 (Fe ), wfc  4 (l=1 m= 2)
     state #  34: atom   3 (Fe ), wfc  4 (l=1 m= 3)
     state #  35: atom   3 (Fe ), wfc  5 (l=2 m= 1)
     state #  36: atom   3 (Fe ), wfc  5 (l=2 m= 2)
     state #  37: atom   3 (Fe ), wfc  5 (l=2 m= 3)
     state #  38: atom   3 (Fe ), wfc  5 (l=2 m= 4)
     state #  39: atom   3 (Fe ), wfc  5 (l=2 m= 5)
     state #  40: atom   4 (Fe ), wfc  1 (l=0 m= 1)
     state #  41: atom   4 (Fe ), wfc  2 (l=0 m= 1)
     state #  42: atom   4 (Fe ), wfc  3 (l=1 m= 1)
     state #  43: atom   4 (Fe ), wfc  3 (l=1 m= 2)
     state #  44: atom   4 (Fe ), wfc  3 (l=1 m= 3)
     state #  45: atom   4 (Fe ), wfc  4 (l=1 m= 1)
     state #  46: atom   4 (Fe ), wfc  4 (l=1 m= 2)
     state #  47: atom   4 (Fe ), wfc  4 (l=1 m= 3)
     state #  48: atom   4 (Fe ), wfc  5 (l=2 m= 1)
     state #  49: atom   4 (Fe ), wfc  5 (l=2 m= 2)
     state #  50: atom   4 (Fe ), wfc  5 (l=2 m= 3)
     state #  51: atom   4 (Fe ), wfc  5 (l=2 m= 4)
     state #  52: atom   4 (Fe ), wfc  5 (l=2 m= 5)
     state #  53: atom   5 (Fe ), wfc  1 (l=0 m= 1)
     state #  54: atom   5 (Fe ), wfc  2 (l=0 m= 1)
     state #  55: atom   5 (Fe ), wfc  3 (l=1 m= 1)
     state #  56: atom   5 (Fe ), wfc  3 (l=1 m= 2)
     state #  57: atom   5 (Fe ), wfc  3 (l=1 m= 3)
     state #  58: atom   5 (Fe ), wfc  4 (l=1 m= 1)
     state #  59: atom   5 (Fe ), wfc  4 (l=1 m= 2)
     state #  60: atom   5 (Fe ), wfc  4 (l=1 m= 3)
     state #  61: atom   5 (Fe ), wfc  5 (l=2 m= 1)
     state #  62: atom   5 (Fe ), wfc  5 (l=2 m= 2)
     state #  63: atom   5 (Fe ), wfc  5 (l=2 m= 3)
     state #  64: atom   5 (Fe ), wfc  5 (l=2 m= 4)
     state #  65: atom   5 (Fe ), wfc  5 (l=2 m= 5)
     state #  66: atom   6 (Fe ), wfc  1 (l=0 m= 1)
     state #  67: atom   6 (Fe ), wfc  2 (l=0 m= 1)
     state #  68: atom   6 (Fe ), wfc  3 (l=1 m= 1)
     state #  69: atom   6 (Fe ), wfc  3 (l=1 m= 2)
     state #  70: atom   6 (Fe ), wfc  3 (l=1 m= 3)
     state #  71: atom   6 (Fe ), wfc  4 (l=1 m= 1)
     state #  72: atom   6 (Fe ), wfc  4 (l=1 m= 2)
     state #  73: atom   6 (Fe ), wfc  4 (l=1 m= 3)
     state #  74: atom   6 (Fe ), wfc  5 (l=2 m= 1)
     state #  75: atom   6 (Fe ), wfc  5 (l=2 m= 2)
     state #  76: atom   6 (Fe ), wfc  5 (l=2 m= 3)
     state #  77: atom   6 (Fe ), wfc  5 (l=2 m= 4)
     state #  78: atom   6 (Fe ), wfc  5 (l=2 m= 5)
     state #  79: atom   7 (Fe ), wfc  1 (l=0 m= 1)
     state #  80: atom   7 (Fe ), wfc  2 (l=0 m= 1)
     state #  81: atom   7 (Fe ), wfc  3 (l=1 m= 1)
     state #  82: atom   7 (Fe ), wfc  3 (l=1 m= 2)
     state #  83: atom   7 (Fe ), wfc  3 (l=1 m= 3)
     state #  84: atom   7 (Fe ), wfc  4 (l=1 m= 1)
     state #  85: atom   7 (Fe ), wfc  4 (l=1 m= 2)
     state #  86: atom   7 (Fe ), wfc  4 (l=1 m= 3)
     state #  87: atom   7 (Fe ), wfc  5 (l=2 m= 1)
     state #  88: atom   7 (Fe ), wfc  5 (l=2 m= 2)
     state #  89: atom   7 (Fe ), wfc  5 (l=2 m= 3)
     state #  90: atom   7 (Fe ), wfc  5 (l=2 m= 4)
     state #  91: atom   7 (Fe ), wfc  5 (l=2 m= 5)
     state #  92: atom   8 (Fe ), wfc  1 (l=0 m= 1)
     state #  93: atom   8 (Fe ), wfc  2 (l=0 m= 1)
     state #  94: atom   8 (Fe ), wfc  3 (l=1 m= 1)
     state #  95: atom   8 (Fe ), wfc  3 (l=1 m= 2)
     state #  96: atom   8 (Fe ), wfc  3 (l=1 m= 3)
     state #  97: atom   8 (Fe ), wfc  4 (l=1 m= 1)
     state #  98: atom   8 (Fe ), wfc  4 (l=1 m= 2)
     state #  99: atom   8 (Fe ), wfc  4 (l=1 m= 3)
     state # 100: atom   8 (Fe ), wfc  5 (l=2 m= 1)
     state # 101: atom   8 (Fe ), wfc  5 (l=2 m= 2)
     state # 102: atom   8 (Fe ), wfc  5 (l=2 m= 3)
     state # 103: atom   8 (Fe ), wfc  5 (l=2 m= 4)
     state # 104: atom   8 (Fe ), wfc  5 (l=2 m= 5)
     state # 105: atom   9 (Fe ), wfc  1 (l=0 m= 1)
     state # 106: atom   9 (Fe ), wfc  2 (l=0 m= 1)
     state # 107: atom   9 (Fe ), wfc  3 (l=1 m= 1)
     state # 108: atom   9 (Fe ), wfc  3 (l=1 m= 2)
     state # 109: atom   9 (Fe ), wfc  3 (l=1 m= 3)
     state # 110: atom   9 (Fe ), wfc  4 (l=1 m= 1)
     state # 111: atom   9 (Fe ), wfc  4 (l=1 m= 2)
     state # 112: atom   9 (Fe ), wfc  4 (l=1 m= 3)
     state # 113: atom   9 (Fe ), wfc  5 (l=2 m= 1)
     state # 114: atom   9 (Fe ), wfc  5 (l=2 m= 2)
     state # 115: atom   9 (Fe ), wfc  5 (l=2 m= 3)
     state # 116: atom   9 (Fe ), wfc  5 (l=2 m= 4)
     state # 117: atom   9 (Fe ), wfc  5 (l=2 m= 5)
     state # 118: atom  10 (Fe ), wfc  1 (l=0 m= 1)
     state # 119: atom  10 (Fe ), wfc  2 (l=0 m= 1)
     state # 120: atom  10 (Fe ), wfc  3 (l=1 m= 1)
     state # 121: atom  10 (Fe ), wfc  3 (l=1 m= 2)
     state # 122: atom  10 (Fe ), wfc  3 (l=1 m= 3)
     state # 123: atom  10 (Fe ), wfc  4 (l=1 m= 1)
     state # 124: atom  10 (Fe ), wfc  4 (l=1 m= 2)
     state # 125: atom  10 (Fe ), wfc  4 (l=1 m= 3)
     state # 126: atom  10 (Fe ), wfc  5 (l=2 m= 1)
     state # 127: atom  10 (Fe ), wfc  5 (l=2 m= 2)
     state # 128: atom  10 (Fe ), wfc  5 (l=2 m= 3)
     state # 129: atom  10 (Fe ), wfc  5 (l=2 m= 4)
     state # 130: atom  10 (Fe ), wfc  5 (l=2 m= 5)
     state # 131: atom  11 (Fe ), wfc  1 (l=0 m= 1)
     state # 132: atom  11 (Fe ), wfc  2 (l=0 m= 1)
     state # 133: atom  11 (Fe ), wfc  3 (l=1 m= 1)
     state # 134: atom  11 (Fe ), wfc  3 (l=1 m= 2)
     state # 135: atom  11 (Fe ), wfc  3 (l=1 m= 3)
     state # 136: atom  11 (Fe ), wfc  4 (l=1 m= 1)
     state # 137: atom  11 (Fe ), wfc  4 (l=1 m= 2)
     state # 138: atom  11 (Fe ), wfc  4 (l=1 m= 3)
     state # 139: atom  11 (Fe ), wfc  5 (l=2 m= 1)
     state # 140: atom  11 (Fe ), wfc  5 (l=2 m= 2)
     state # 141: atom  11 (Fe ), wfc  5 (l=2 m= 3)
     state # 142: atom  11 (Fe ), wfc  5 (l=2 m= 4)
     state # 143: atom  11 (Fe ), wfc  5 (l=2 m= 5)
     state # 144: atom  12 (Fe ), wfc  1 (l=0 m= 1)
     state # 145: atom  12 (Fe ), wfc  2 (l=0 m= 1)
     state # 146: atom  12 (Fe ), wfc  3 (l=1 m= 1)
     state # 147: atom  12 (Fe ), wfc  3 (l=1 m= 2)
     state # 148: atom  12 (Fe ), wfc  3 (l=1 m= 3)
     state # 149: atom  12 (Fe ), wfc  4 (l=1 m= 1)
     state # 150: atom  12 (Fe ), wfc  4 (l=1 m= 2)
     state # 151: atom  12 (Fe ), wfc  4 (l=1 m= 3)
     state # 152: atom  12 (Fe ), wfc  5 (l=2 m= 1)
     state # 153: atom  12 (Fe ), wfc  5 (l=2 m= 2)
     state # 154: atom  12 (Fe ), wfc  5 (l=2 m= 3)
     state # 155: atom  12 (Fe ), wfc  5 (l=2 m= 4)
     state # 156: atom  12 (Fe ), wfc  5 (l=2 m= 5)
     state # 157: atom  13 (Fe ), wfc  1 (l=0 m= 1)
     state # 158: atom  13 (Fe ), wfc  2 (l=0 m= 1)
     state # 159: atom  13 (Fe ), wfc  3 (l=1 m= 1)
     state # 160: atom  13 (Fe ), wfc  3 (l=1 m= 2)
     state # 161: atom  13 (Fe ), wfc  3 (l=1 m= 3)
     state # 162: atom  13 (Fe ), wfc  4 (l=1 m= 1)
     state # 163: atom  13 (Fe ), wfc  4 (l=1 m= 2)
     state # 164: atom  13 (Fe ), wfc  4 (l=1 m= 3)
     state # 165: atom  13 (Fe ), wfc  5 (l=2 m= 1)
     state # 166: atom  13 (Fe ), wfc  5 (l=2 m= 2)
     state # 167: atom  13 (Fe ), wfc  5 (l=2 m= 3)
     state # 168: atom  13 (Fe ), wfc  5 (l=2 m= 4)
     state # 169: atom  13 (Fe ), wfc  5 (l=2 m= 5)
     state # 170: atom  14 (Fe ), wfc  1 (l=0 m= 1)
     state # 171: atom  14 (Fe ), wfc  2 (l=0 m= 1)
     state # 172: atom  14 (Fe ), wfc  3 (l=1 m= 1)
     state # 173: atom  14 (Fe ), wfc  3 (l=1 m= 2)
     state # 174: atom  14 (Fe ), wfc  3 (l=1 m= 3)
     state # 175: atom  14 (Fe ), wfc  4 (l=1 m= 1)
     state # 176: atom  14 (Fe ), wfc  4 (l=1 m= 2)
     state # 177: atom  14 (Fe ), wfc  4 (l=1 m= 3)
     state # 178: atom  14 (Fe ), wfc  5 (l=2 m= 1)
     state # 179: atom  14 (Fe ), wfc  5 (l=2 m= 2)
     state # 180: atom  14 (Fe ), wfc  5 (l=2 m= 3)
     state # 181: atom  14 (Fe ), wfc  5 (l=2 m= 4)
     state # 182: atom  14 (Fe ), wfc  5 (l=2 m= 5)
     state # 183: atom  15 (Fe ), wfc  1 (l=0 m= 1)
     state # 184: atom  15 (Fe ), wfc  2 (l=0 m= 1)
     state # 185: atom  15 (Fe ), wfc  3 (l=1 m= 1)
     state # 186: atom  15 (Fe ), wfc  3 (l=1 m= 2)
     state # 187: atom  15 (Fe ), wfc  3 (l=1 m= 3)
     state # 188: atom  15 (Fe ), wfc  4 (l=1 m= 1)
     state # 189: atom  15 (Fe ), wfc  4 (l=1 m= 2)
     state # 190: atom  15 (Fe ), wfc  4 (l=1 m= 3)
     state # 191: atom  15 (Fe ), wfc  5 (l=2 m= 1)
     state # 192: atom  15 (Fe ), wfc  5 (l=2 m= 2)
     state # 193: atom  15 (Fe ), wfc  5 (l=2 m= 3)
     state # 194: atom  15 (Fe ), wfc  5 (l=2 m= 4)
     state # 195: atom  15 (Fe ), wfc  5 (l=2 m= 5)
     state # 196: atom  16 (Fe ), wfc  1 (l=0 m= 1)
     state # 197: atom  16 (Fe ), wfc  2 (l=0 m= 1)
     state # 198: atom  16 (Fe ), wfc  3 (l=1 m= 1)
     state # 199: atom  16 (Fe ), wfc  3 (l=1 m= 2)
     state # 200: atom  16 (Fe ), wfc  3 (l=1 m= 3)
     state # 201: atom  16 (Fe ), wfc  4 (l=1 m= 1)
     state # 202: atom  16 (Fe ), wfc  4 (l=1 m= 2)
     state # 203: atom  16 (Fe ), wfc  4 (l=1 m= 3)
     state # 204: atom  16 (Fe ), wfc  5 (l=2 m= 1)
     state # 205: atom  16 (Fe ), wfc  5 (l=2 m= 2)
     state # 206: atom  16 (Fe ), wfc  5 (l=2 m= 3)
     state # 207: atom  16 (Fe ), wfc  5 (l=2 m= 4)
     state # 208: atom  16 (Fe ), wfc  5 (l=2 m= 5)
     state # 209: atom  17 (Fe ), wfc  1 (l=0 m= 1)
     state # 210: atom  17 (Fe ), wfc  2 (l=0 m= 1)
     state # 211: atom  17 (Fe ), wfc  3 (l=1 m= 1)
     state # 212: atom  17 (Fe ), wfc  3 (l=1 m= 2)
     state # 213: atom  17 (Fe ), wfc  3 (l=1 m= 3)
     state # 214: atom  17 (Fe ), wfc  4 (l=1 m= 1)
     state # 215: atom  17 (Fe ), wfc  4 (l=1 m= 2)
     state # 216: atom  17 (Fe ), wfc  4 (l=1 m= 3)
     state # 217: atom  17 (Fe ), wfc  5 (l=2 m= 1)
     state # 218: atom  17 (Fe ), wfc  5 (l=2 m= 2)
     state # 219: atom  17 (Fe ), wfc  5 (l=2 m= 3)
     state # 220: atom  17 (Fe ), wfc  5 (l=2 m= 4)
     state # 221: atom  17 (Fe ), wfc  5 (l=2 m= 5)
     state # 222: atom  18 (Fe ), wfc  1 (l=0 m= 1)
     state # 223: atom  18 (Fe ), wfc  2 (l=0 m= 1)
     state # 224: atom  18 (Fe ), wfc  3 (l=1 m= 1)
     state # 225: atom  18 (Fe ), wfc  3 (l=1 m= 2)
     state # 226: atom  18 (Fe ), wfc  3 (l=1 m= 3)
     state # 227: atom  18 (Fe ), wfc  4 (l=1 m= 1)
     state # 228: atom  18 (Fe ), wfc  4 (l=1 m= 2)
     state # 229: atom  18 (Fe ), wfc  4 (l=1 m= 3)
     state # 230: atom  18 (Fe ), wfc  5 (l=2 m= 1)
     state # 231: atom  18 (Fe ), wfc  5 (l=2 m= 2)
     state # 232: atom  18 (Fe ), wfc  5 (l=2 m= 3)
     state # 233: atom  18 (Fe ), wfc  5 (l=2 m= 4)
     state # 234: atom  18 (Fe ), wfc  5 (l=2 m= 5)
     state # 235: atom  19 (Fe ), wfc  1 (l=0 m= 1)
     state # 236: atom  19 (Fe ), wfc  2 (l=0 m= 1)
     state # 237: atom  19 (Fe ), wfc  3 (l=1 m= 1)
     state # 238: atom  19 (Fe ), wfc  3 (l=1 m= 2)
     state # 239: atom  19 (Fe ), wfc  3 (l=1 m= 3)
     state # 240: atom  19 (Fe ), wfc  4 (l=1 m= 1)
     state # 241: atom  19 (Fe ), wfc  4 (l=1 m= 2)
     state # 242: atom  19 (Fe ), wfc  4 (l=1 m= 3)
     state # 243: atom  19 (Fe ), wfc  5 (l=2 m= 1)
     state # 244: atom  19 (Fe ), wfc  5 (l=2 m= 2)
     state # 245: atom  19 (Fe ), wfc  5 (l=2 m= 3)
     state # 246: atom  19 (Fe ), wfc  5 (l=2 m= 4)
     state # 247: atom  19 (Fe ), wfc  5 (l=2 m= 5)
     state # 248: atom  20 (Fe ), wfc  1 (l=0 m= 1)
     state # 249: atom  20 (Fe ), wfc  2 (l=0 m= 1)
     state # 250: atom  20 (Fe ), wfc  3 (l=1 m= 1)
     state # 251: atom  20 (Fe ), wfc  3 (l=1 m= 2)
     state # 252: atom  20 (Fe ), wfc  3 (l=1 m= 3)
     state # 253: atom  20 (Fe ), wfc  4 (l=1 m= 1)
     state # 254: atom  20 (Fe ), wfc  4 (l=1 m= 2)
     state # 255: atom  20 (Fe ), wfc  4 (l=1 m= 3)
     state # 256: atom  20 (Fe ), wfc  5 (l=2 m= 1)
     state # 257: atom  20 (Fe ), wfc  5 (l=2 m= 2)
     state # 258: atom  20 (Fe ), wfc  5 (l=2 m= 3)
     state # 259: atom  20 (Fe ), wfc  5 (l=2 m= 4)
     state # 260: atom  20 (Fe ), wfc  5 (l=2 m= 5)
     state # 261: atom  21 (S  ), wfc  1 (l=0 m= 1)
     state # 262: atom  21 (S  ), wfc  2 (l=1 m= 1)
     state # 263: atom  21 (S  ), wfc  2 (l=1 m= 2)
     state # 264: atom  21 (S  ), wfc  2 (l=1 m= 3)
     state # 265: atom  22 (H  ), wfc  1 (l=0 m= 1)
     state # 266: atom  23 (H  ), wfc  1 (l=0 m= 1)

 k =   0.0000000000  0.0000000000  0.0000000000
     e =   -82.95623 eV
     psi = 0.365*[#  27]+0.270*[#  14]+0.148*[#  40]+0.125*[#   1]+0.013*[#  58]+
          +0.013*[#  71]+0.013*[#  84]+0.013*[#  97]+0.004*[# 136]+0.004*[#  54]+
          +0.004*[#  67]+0.004*[#  80]+0.004*[#  93]+0.004*[# 123]+0.003*[# 149]+
          +0.003*[# 110]+
    |psi|^2 = 1.000
     e =   -82.95149 eV
     psi = 0.508*[#  14]+0.440*[#  27]+0.005*[#  59]+0.005*[#  60]+0.005*[#  72]+
          +0.005*[#  73]+0.005*[#  85]+0.005*[#  86]+0.005*[#  98]+0.005*[#  99]+
          +0.003*[#  15]+0.003*[#  28]+0.002*[#  40]+0.001*[#   1]+
    |psi|^2 = 1.000
     e =   -82.94666 eV
     psi = 0.542*[#  40]+0.404*[#   1]+0.005*[#  59]+0.004*[#  60]+0.005*[#  72]+
          +0.004*[#  73]+0.005*[#  85]+0.004*[#  86]+0.005*[#  98]+0.004*[#  99]+
          +0.004*[#  41]+0.003*[#  14]+0.003*[#   2]+0.002*[#  27]+
    |psi|^2 = 1.000
     e =   -82.94349 eV
     psi = 0.417*[#   1]+0.256*[#  40]+0.165*[#  14]+0.140*[#  27]+0.005*[#   2]+
          +0.004*[#  15]+0.003*[#  41]+0.003*[#  28]+
    |psi|^2 = 1.000
     e =   -82.91913 eV
     psi = 0.879*[# 248]+0.046*[# 235]+0.007*[# 222]+0.006*[# 162]+0.006*[# 175]+
          +0.006*[# 188]+0.006*[# 201]+0.005*[# 249]+0.004*[# 149]+0.003*[# 163]+
          +0.003*[# 176]+0.003*[# 189]+0.003*[# 202]+0.002*[# 158]+0.002*[# 171]+
          +0.002*[# 184]+0.002*[# 197]+0.002*[# 164]+0.002*[# 177]+0.002*[# 190]+
          +0.002*[# 203]+0.001*[# 136]+0.001*[# 123]+
    |psi|^2 = 1.000
     e =   -82.90538 eV
     psi = 0.894*[# 235]+0.056*[# 248]+0.007*[# 236]+0.004*[# 164]+0.004*[# 177]+
          +0.004*[# 190]+0.004*[# 203]+0.002*[# 136]+0.002*[# 209]+0.002*[# 162]+
          +0.002*[# 175]+0.002*[# 188]+0.002*[# 201]+0.002*[# 249]+0.001*[# 163]+
          +0.001*[# 176]+0.001*[# 189]+0.001*[# 202]+
    |psi|^2 = 1.000
     e =   -82.88721 eV
     psi = 0.927*[# 222]+0.011*[# 248]+0.007*[# 209]+0.006*[# 223]+0.003*[# 163]+
          +0.003*[# 176]+0.003*[# 189]+0.003*[# 202]+0.003*[# 162]+0.003*[# 175]+
          +0.003*[# 123]+0.003*[# 188]+0.003*[# 201]+0.002*[# 164]+0.002*[# 177]+
          +0.002*[# 190]+0.002*[# 203]+
    |psi|^2 = 1.000
     e =   -82.85750 eV
     psi = 0.940*[# 209]+0.011*[# 222]+0.007*[# 210]+0.005*[# 235]+0.002*[# 162]+
          +0.002*[# 175]+0.002*[# 164]+0.002*[# 177]+0.002*[# 188]+0.002*[# 201]+
          +0.002*[# 190]+0.002*[# 203]+0.002*[# 110]+0.002*[# 163]+0.002*[# 176]+
          +0.002*[# 189]+0.002*[# 202]+0.001*[# 262]+
    |psi|^2 = 1.000
     e =   -82.31050 eV
     psi = 0.315*[# 144]+0.161*[# 118]+0.156*[# 131]+0.038*[# 196]+0.035*[# 183]+
          +0.029*[# 105]+0.025*[#  92]+0.024*[#  79]+0.023*[#  66]+0.023*[#  53]+
          +0.016*[# 170]+0.016*[# 157]+0.009*[#  84]+0.009*[#  97]+0.008*[# 162]+
          +0.008*[# 175]+0.008*[# 188]+0.008*[# 201]+0.008*[#  58]+0.008*[#  71]+
          +0.005*[# 253]+0.004*[#  45]+0.004*[# 227]+0.004*[# 240]+0.004*[#  19]+
          +0.004*[#  32]+0.003*[# 214]+0.003*[#   2]+0.003*[#   6]+0.003*[# 223]+
          +0.003*[# 236]+0.003*[#  15]+0.003*[#  28]+0.003*[# 210]+0.003*[# 249]+
          +0.002*[#  41]+0.002*[#  54]+0.002*[#  67]+0.002*[# 158]+0.002*[# 171]+
          +0.002*[#  80]+0.002*[#  93]+0.001*[# 184]+0.001*[# 197]+
    |psi|^2 = 1.000
     e =   -82.28165 eV
     psi = 0.558*[# 144]+0.227*[# 118]+0.145*[# 131]+0.011*[# 145]+0.010*[# 105]+
          +0.004*[# 196]+0.003*[# 183]+0.003*[# 119]+0.002*[#  59]+0.002*[#  72]+
          +0.002*[#  85]+0.002*[#  98]+0.002*[# 163]+0.002*[# 176]+0.002*[# 189]+
          +0.002*[# 202]+0.001*[# 132]+0.001*[#  53]+0.001*[#  60]+0.001*[#  79]+
          +0.001*[#  92]+0.001*[#  66]+0.001*[#  73]+0.001*[#  86]+0.001*[#  99]+
          +0.001*[# 164]+0.001*[# 177]+
    |psi|^2 = 1.000
     e =   -82.27905 eV
     psi = 0.502*[# 131]+0.419*[# 118]+0.007*[# 132]+0.006*[# 119]+0.004*[#  60]+
          +0.004*[#  73]+0.004*[#  86]+0.004*[#  99]+0.004*[# 164]+0.004*[# 177]+
          +0.004*[# 190]+0.004*[# 203]+0.003*[#  59]+0.003*[#  72]+0.003*[#  85]+
          +0.003*[#  98]+0.003*[# 163]+0.003*[# 176]+0.003*[# 189]+0.003*[# 202]+
          +0.003*[# 144]+
    |psi|^2 = 1.000
     e =   -82.24678 eV
     psi = 0.501*[# 105]+0.185*[# 196]+0.081*[# 131]+0.077*[# 118]+0.072*[# 183]+
          +0.016*[# 144]+0.004*[# 106]+0.004*[# 132]+0.004*[# 119]+0.003*[# 214]+
          +0.002*[# 197]+0.001*[#  59]+0.001*[#  60]+0.001*[#  72]+0.001*[#  73]+
          +0.001*[#  85]+0.001*[#  86]+0.001*[#  92]+0.001*[#  98]+0.001*[# 176]+
          +0.001*[#  99]+0.001*[# 145]+0.001*[# 163]+0.001*[# 164]+0.001*[# 177]+
          +0.001*[# 189]+0.001*[# 190]+0.001*[# 202]+0.001*[# 203]+0.001*[# 249]+
          +0.001*[# 110]+0.001*[# 123]+0.001*[# 136]+0.001*[# 149]+0.001*[# 170]+
          +0.001*[#   6]+
    |psi|^2 = 1.000
     e =   -82.24045 eV
     psi = 0.613*[# 196]+0.232*[# 183]+0.061*[# 105]+0.013*[#  79]+0.010*[# 197]+
          +0.006*[# 157]+0.006*[#  53]+0.006*[#  66]+0.004*[# 112]+0.004*[# 125]+
          +0.004*[# 138]+0.004*[# 151]+0.004*[# 229]+0.003*[# 255]+0.003*[# 242]+
          +0.003*[# 184]+0.003*[# 216]+0.002*[#  92]+0.002*[# 118]+0.002*[# 131]+
    |psi|^2 = 1.000
     e =   -82.23727 eV
     psi = 0.545*[# 183]+0.140*[# 105]+0.054*[# 196]+0.046*[#  92]+0.038*[#  66]+
          +0.035*[#  53]+0.032*[#  79]+0.011*[# 170]+0.010*[# 184]+0.007*[# 110]+
          +0.007*[# 123]+0.007*[# 136]+0.007*[# 149]+0.004*[# 157]+0.003*[# 111]+
          +0.003*[# 124]+0.003*[# 137]+0.002*[# 150]+0.002*[# 228]+0.002*[# 241]+
          +0.002*[# 254]+0.002*[#   6]+0.002*[# 106]+0.002*[# 215]+0.001*[# 197]+
          +0.001*[# 118]+0.001*[# 162]+0.001*[# 175]+0.001*[# 201]+0.001*[#  19]+
          +0.001*[#  32]+0.001*[# 188]+0.001*[#  45]+0.001*[# 131]+
    |psi|^2 = 1.000
     e =   -82.22220 eV
     psi = 0.461*[#  92]+0.204*[#  53]+0.137*[#  79]+0.091*[#  66]+0.011*[# 170]+
          +0.010*[# 157]+0.009*[# 111]+0.009*[# 124]+0.009*[# 137]+0.008*[# 150]+
          +0.007*[#  93]+0.006*[#   7]+0.006*[#  20]+0.006*[#  33]+0.006*[#  46]+
          +0.004*[# 105]+0.002*[#  54]+0.002*[#  80]+0.001*[#  67]+
    |psi|^2 = 1.000
     e =   -82.22212 eV
     psi = 0.499*[#  79]+0.188*[#  92]+0.184*[#  66]+0.054*[#  53]+0.007*[#  80]+
          +0.006*[# 112]+0.006*[# 125]+0.006*[# 138]+0.006*[# 151]+0.006*[#   8]+
          +0.006*[#  21]+0.006*[#  34]+0.006*[#  47]+0.003*[#  93]+0.003*[# 183]+
          +0.002*[# 196]+0.002*[#  67]+0.001*[# 170]+
    |psi|^2 = 1.000
     e =   -82.21609 eV
     psi = 0.361*[#  53]+0.349*[#  66]+0.135*[#  79]+0.119*[#  92]+0.006*[#  54]+
          +0.006*[#  67]+0.005*[# 157]+0.005*[# 170]+0.002*[#  80]+0.002*[#  93]+
    |psi|^2 = 1.000
     e =   -82.21455 eV
     psi = 0.258*[# 170]+0.178*[# 157]+0.174*[#  66]+0.172*[#  53]+0.030*[#  79]+
          +0.029*[#  92]+0.026*[# 105]+0.016*[# 183]+0.015*[# 196]+0.010*[# 110]+
          +0.010*[# 123]+0.010*[# 136]+0.010*[# 149]+0.003*[# 144]+0.003*[# 118]+
          +0.003*[# 131]+0.003*[# 171]+0.003*[#  54]+0.003*[#  67]+0.002*[# 228]+
          +0.003*[# 241]+0.002*[# 254]+0.002*[# 158]+0.002*[#  71]+0.002*[# 215]+
          +0.002*[#  19]+0.002*[#  32]+0.002*[#  45]+0.002*[#  58]+0.002*[#   6]+
          +0.001*[#  80]+0.001*[# 214]+
    |psi|^2 = 1.000
     e =   -82.20528 eV
     psi = 0.482*[# 157]+0.451*[# 170]+0.012*[#  53]+0.007*[# 158]+0.007*[# 171]+
          +0.006*[# 183]+0.003*[# 229]+0.003*[# 242]+0.003*[# 255]+0.003*[# 112]+
          +0.002*[# 125]+0.002*[# 138]+0.002*[# 151]+0.002*[# 216]+0.002*[#  66]+
          +0.002*[# 196]+0.001*[#  92]+
    |psi|^2 = 1.000
     e =   -82.19346 eV
     psi = 0.226*[# 157]+0.173*[# 170]+0.153*[# 105]+0.061*[#  66]+0.060*[#  53]+
          +0.057*[#  79]+0.057*[#  92]+0.037*[# 131]+0.037*[# 118]+0.031*[# 144]+
          +0.018*[# 183]+0.017*[# 196]+0.010*[# 106]+0.006*[# 119]+0.006*[# 132]+
          +0.005*[# 145]+0.004*[# 158]+0.003*[# 171]+0.002*[# 227]+0.002*[# 240]+
          +0.002*[# 253]+0.002*[# 214]+0.001*[#  54]+0.001*[#  67]+0.001*[# 223]+
          +0.001*[# 236]+
    |psi|^2 = 1.000
     e =   -49.13251 eV
     psi = 0.535*[#  29]+0.436*[#  16]+0.002*[#  56]+0.002*[#  57]+0.002*[#  69]+
          +0.002*[#  70]+0.002*[#  82]+0.002*[#  83]+0.002*[#  95]+0.002*[#  96]+
    |psi|^2 = 1.000
     e =   -49.12850 eV
     psi = 0.582*[#  42]+0.228*[#  16]+0.167*[#  29]+0.003*[#   3]+0.001*[#  55]+
          +0.001*[#  68]+0.001*[#  81]+0.001*[#  94]+
    |psi|^2 = 1.000
     e =   -49.12701 eV
     psi = 0.609*[#   3]+0.138*[#  16]+0.119*[#  42]+0.110*[#  29]+0.001*[#  56]+
          +0.001*[#  69]+0.001*[#  82]+0.001*[#  95]+0.001*[#  57]+0.001*[#  70]+
          +0.001*[#  83]+0.001*[#  96]+
    |psi|^2 = 1.000
     e =   -49.11085 eV
     psi = 0.368*[#   3]+0.278*[#  42]+0.178*[#  16]+0.168*[#  29]+0.001*[#  19]+
          +0.001*[#  32]+0.001*[#   6]+
    |psi|^2 = 1.000
     e =   -49.09953 eV
     psi = 0.921*[# 250]+0.042*[# 237]+0.012*[# 224]+0.001*[# 160]+0.002*[# 173]+
          +0.001*[# 186]+0.001*[# 199]+0.001*[# 149]+
    |psi|^2 = 1.000
     e =   -49.08713 eV
     psi = 0.702*[# 237]+0.245*[# 224]+0.016*[# 250]+0.005*[# 238]+0.003*[# 161]+
          +0.003*[# 174]+0.002*[# 187]+0.002*[# 200]+0.002*[# 160]+0.002*[# 173]+
          +0.002*[# 186]+0.002*[# 199]+0.001*[# 164]+0.001*[# 177]+
    |psi|^2 = 1.000
     e =   -49.07105 eV
     psi = 0.717*[# 224]+0.224*[# 237]+0.038*[# 250]+0.003*[# 211]+0.002*[# 238]+
          +0.002*[# 253]+0.001*[# 214]+0.001*[# 123]+
    |psi|^2 = 1.000
     e =   -48.98763 eV
     psi = 0.367*[#  31]+0.314*[#  44]+0.143*[#  18]+0.134*[#   5]+0.005*[#  68]+
          +0.005*[#  81]+0.004*[#  55]+0.004*[#  94]+0.002*[#  71]+0.002*[#  84]+
          +0.002*[#  47]+0.002*[#  58]+0.002*[#  97]+0.002*[#   8]+0.001*[#  21]+
          +0.001*[#  34]+0.001*[#  67]+0.001*[#  80]+0.001*[#  54]+0.001*[#  93]+
    |psi|^2 = 1.000
     e =   -48.98753 eV
     psi = 0.339*[#  17]+0.297*[#  43]+0.169*[#  30]+0.153*[#   4]+0.005*[#  55]+
          +0.005*[#  94]+0.004*[#  68]+0.004*[#  81]+0.002*[#  58]+0.002*[#  97]+
          +0.002*[#  46]+0.002*[#  71]+0.002*[#  84]+0.002*[#   7]+0.002*[#  20]+
          +0.001*[#  33]+0.001*[#  54]+0.001*[#  93]+0.001*[#  67]+0.001*[#  80]+
    |psi|^2 = 1.000
     e =   -48.98388 eV
     psi = 0.341*[#  30]+0.300*[#   4]+0.176*[#  17]+0.149*[#  43]+0.006*[#  57]+
          +0.006*[#  70]+0.006*[#  83]+0.006*[#  96]+0.001*[#  60]+0.001*[#  73]+
          +0.001*[#  86]+0.001*[#  99]+
    |psi|^2 = 1.000
     e =   -48.98384 eV
     psi = 0.359*[#  18]+0.326*[#   5]+0.154*[#  31]+0.128*[#  44]+0.006*[#  56]+
          +0.006*[#  69]+0.006*[#  82]+0.006*[#  95]+0.001*[#  59]+0.001*[#  72]+
          +0.001*[#  85]+0.001*[#  98]+
    |psi|^2 = 1.000
     e =   -48.96947 eV
     psi = 0.392*[# 212]+0.372*[# 211]+0.201*[# 238]+0.004*[# 187]+0.004*[# 200]+
          +0.003*[# 185]+0.003*[# 198]+0.001*[# 241]+0.001*[# 190]+0.001*[# 203]+
    |psi|^2 = 1.000
     e =   -48.95101 eV
     psi = 0.596*[# 252]+0.357*[# 239]+0.004*[# 186]+0.004*[# 160]+0.003*[# 173]+
          +0.004*[# 199]+0.003*[# 172]+0.003*[# 185]+0.003*[# 198]+0.003*[# 159]+
          +0.002*[# 242]+0.002*[# 226]+0.001*[# 162]+0.001*[# 175]+0.001*[# 188]+
          +0.001*[# 201]+
    |psi|^2 = 1.000
     e =   -48.94980 eV
     psi = 0.577*[# 211]+0.228*[# 238]+0.146*[# 212]+0.007*[# 251]+0.006*[# 237]+
          +0.003*[# 159]+0.003*[# 161]+0.003*[# 174]+0.003*[# 172]+0.002*[# 225]+
          +0.001*[# 199]+0.001*[# 262]+0.001*[# 186]+0.001*[# 224]+0.001*[# 250]+
    |psi|^2 = 1.000
     e =   -48.93856 eV
     psi = 0.692*[# 251]+0.253*[# 225]+0.006*[# 212]+0.005*[# 187]+0.005*[# 200]+
          +0.004*[# 161]+0.004*[# 174]+0.003*[# 211]+0.003*[# 185]+0.003*[# 198]+
          +0.002*[# 228]+0.002*[# 238]+0.002*[# 159]+0.002*[# 172]+
    |psi|^2 = 1.000
     e =   -48.92054 eV
     psi = 0.293*[#  44]+0.246*[#  31]+0.230*[#   5]+0.207*[#  18]+0.003*[#  57]+
          +0.003*[#  70]+0.003*[#  83]+0.003*[#  96]+0.003*[#  34]+0.003*[#  47]+
          +0.002*[#   8]+0.002*[#  21]+
    |psi|^2 = 1.000
     e =   -48.92049 eV
     psi = 0.284*[#  43]+0.244*[#  17]+0.239*[#   4]+0.209*[#  30]+0.003*[#  56]+
          +0.003*[#  69]+0.003*[#  82]+0.003*[#  95]+0.003*[#  20]+0.003*[#  46]+
          +0.002*[#   7]+0.002*[#  33]+
    |psi|^2 = 1.000
     e =   -48.91751 eV
     psi = 0.720*[# 226]+0.232*[# 213]+0.005*[# 239]+0.004*[# 173]+0.004*[# 186]+
          +0.004*[# 199]+0.004*[# 160]+0.003*[# 198]+0.003*[# 216]+0.002*[# 159]+
          +0.002*[# 172]+0.002*[# 185]+
    |psi|^2 = 1.000
     e =   -48.90733 eV
     psi = 0.266*[#   5]+0.246*[#  18]+0.223*[#  44]+0.193*[#  31]+0.014*[#   4]+
          +0.013*[#  30]+0.012*[#  43]+0.011*[#  17]+0.006*[#  21]+0.005*[#   8]+
          +0.005*[#  34]+0.004*[#  47]+
    |psi|^2 = 1.000
     e =   -48.90731 eV
     psi = 0.264*[#   4]+0.238*[#  30]+0.226*[#  43]+0.200*[#  17]+0.014*[#   5]+
          +0.013*[#  18]+0.012*[#  44]+0.010*[#  31]+0.005*[#  33]+0.005*[#   7]+
          +0.005*[#  20]+0.005*[#  46]+
    |psi|^2 = 1.000
     e =   -48.88977 eV
     psi = 0.505*[# 238]+0.412*[# 212]+0.030*[# 225]+0.017*[# 211]+0.006*[# 215]+
          +0.006*[# 241]+0.006*[# 251]+0.003*[# 160]+0.002*[# 173]+0.002*[# 199]+
          +0.002*[# 186]+0.002*[# 237]+0.001*[# 226]+
    |psi|^2 = 1.000
     e =   -48.87544 eV
     psi = 0.586*[# 239]+0.359*[# 252]+0.028*[# 213]+0.008*[# 255]+0.005*[# 242]+
          +0.003*[# 161]+0.003*[# 174]+0.003*[# 187]+0.003*[# 200]+0.001*[# 226]+
    |psi|^2 = 1.000
     e =   -48.85344 eV
     psi = 0.676*[# 225]+0.259*[# 251]+0.020*[# 238]+0.016*[# 212]+0.009*[# 254]+
          +0.006*[# 228]+0.002*[# 186]+0.002*[# 199]+0.002*[# 215]+0.001*[# 160]+
          +0.001*[# 173]+
    |psi|^2 = 1.000
     e =   -48.83358 eV
     psi = 0.711*[# 213]+0.239*[# 226]+0.017*[# 239]+0.010*[# 252]+0.008*[# 229]+
          +0.006*[# 216]+0.001*[# 242]+0.001*[# 161]+0.001*[# 174]+0.001*[# 200]+
          +0.001*[# 187]+
    |psi|^2 = 1.000
     e =   -48.46772 eV
     psi = 0.134*[# 120]+0.127*[# 133]+0.113*[# 147]+0.099*[# 121]+0.090*[# 200]+
          +0.088*[# 187]+0.082*[#  70]+0.082*[#  57]+0.035*[# 134]+0.025*[# 108]+
          +0.010*[#  56]+0.010*[#  82]+0.009*[#  69]+0.009*[#  95]+0.008*[# 199]+
          +0.008*[# 173]+0.007*[# 186]+0.007*[# 160]+0.005*[# 146]+0.003*[# 224]+
          +0.003*[# 237]+0.003*[# 107]+0.002*[# 238]+0.002*[#  16]+0.002*[#  29]+
          +0.002*[# 185]+0.002*[# 198]+0.002*[#   4]+0.001*[#  30]+0.001*[#  60]+
          +0.001*[#  68]+0.001*[#  73]+0.001*[# 225]+0.001*[#  55]+0.001*[# 124]+
          +0.001*[# 190]+0.001*[# 203]+
    |psi|^2 = 1.000
     e =   -48.46668 eV
     psi = 0.228*[# 148]+0.195*[# 135]+0.081*[# 122]+0.060*[# 199]+0.058*[#  82]+
          +0.057*[# 109]+0.056*[#  56]+0.045*[#  95]+0.045*[# 173]+0.044*[# 186]+
          +0.043*[#  69]+0.034*[# 160]+0.004*[# 226]+0.003*[#   5]+0.003*[#  18]+
          +0.003*[# 213]+0.003*[# 198]+0.002*[# 138]+0.002*[#  55]+0.002*[#  94]+
          +0.002*[# 159]+0.002*[# 239]+0.002*[# 252]+0.002*[# 185]+0.002*[#  31]+
          +0.002*[#  44]+0.002*[# 151]+0.001*[#  81]+0.001*[#  68]+0.001*[# 172]+
          +0.001*[# 147]+
    |psi|^2 = 1.000
     e =   -48.46590 eV
     psi = 0.143*[# 133]+0.133*[# 120]+0.108*[# 147]+0.093*[# 121]+0.060*[#  96]+
          +0.060*[#  83]+0.042*[# 174]+0.041*[# 161]+0.033*[# 134]+0.031*[# 186]+
          +0.030*[#  95]+0.029*[#  69]+0.024*[# 108]+0.022*[# 160]+0.018*[# 199]+
          +0.017*[#  82]+0.016*[#  56]+0.013*[# 173]+0.012*[# 146]+0.006*[# 107]+
          +0.005*[# 187]+0.005*[# 200]+0.004*[#  57]+0.004*[#  70]+0.003*[# 224]+
          +0.002*[#  16]+0.002*[# 237]+0.002*[#  29]+0.002*[# 148]+0.002*[# 185]+
          +0.002*[# 135]+0.001*[#   4]+0.001*[#  30]+0.001*[#  68]+0.001*[# 238]+
          +0.001*[# 198]+0.001*[#  81]+0.001*[# 172]+
    |psi|^2 = 1.000
     e =   -48.45948 eV
     psi = 0.339*[# 146]+0.150*[# 107]+0.054*[#  96]+0.053*[#  83]+0.038*[# 174]+
          +0.037*[# 161]+0.027*[# 186]+0.026*[# 199]+0.025*[#  95]+0.025*[#  69]+
          +0.023*[#  82]+0.023*[#  56]+0.020*[# 160]+0.018*[# 173]+0.017*[# 200]+
          +0.016*[# 187]+0.016*[# 147]+0.014*[# 121]+0.014*[#  57]+0.014*[#  70]+
          +0.005*[# 211]+0.005*[# 250]+0.004*[#  42]+0.004*[#   3]+0.003*[# 120]+
          +0.003*[# 134]+0.002*[#  45]+0.002*[# 253]+0.001*[# 108]+0.001*[#   6]+
          +0.001*[# 159]+0.001*[#  94]+0.001*[# 172]+0.001*[#  81]+0.001*[# 214]+
    |psi|^2 = 1.000
     e =   -48.44469 eV
     psi = 0.288*[# 122]+0.160*[# 109]+0.117*[# 148]+0.076*[# 135]+0.049*[# 198]+
          +0.041*[#  94]+0.039*[#  55]+0.036*[# 185]+0.034*[# 159]+0.031*[#  81]+
          +0.029*[#  68]+0.027*[# 172]+0.005*[# 112]+0.004*[#  69]+0.004*[#  82]+
          +0.004*[#  95]+0.004*[# 125]+0.004*[# 186]+0.003*[#  56]+0.003*[# 199]+
          +0.003*[# 239]+0.003*[# 138]+0.003*[# 173]+0.002*[#  31]+0.002*[# 160]+
          +0.002*[# 151]+0.002*[# 252]+0.002*[#  44]+0.001*[# 134]+0.001*[#  54]+
          +0.001*[#  93]+0.001*[# 158]+0.001*[# 197]+
    |psi|^2 = 1.000
     e =   -48.44374 eV
     psi = 0.297*[# 134]+0.169*[# 108]+0.102*[# 147]+0.068*[# 121]+0.048*[# 185]+
          +0.040*[#  68]+0.039*[#  81]+0.037*[# 198]+0.034*[# 172]+0.030*[#  55]+
          +0.030*[#  94]+0.025*[# 159]+0.006*[#  96]+0.006*[#  83]+0.005*[# 111]+
          +0.004*[#  57]+0.004*[#  70]+0.004*[# 225]+0.004*[# 137]+0.004*[# 200]+
          +0.003*[# 161]+0.003*[# 174]+0.003*[# 187]+0.003*[#  17]+0.002*[# 124]+
          +0.002*[# 251]+0.002*[# 150]+0.002*[#  43]+0.001*[# 122]+0.001*[#  67]+
          +0.001*[#  80]+0.001*[# 171]+0.001*[# 184]+
    |psi|^2 = 1.000
     e =   -48.40230 eV
     psi = 0.236*[# 133]+0.231*[# 120]+0.162*[# 107]+0.095*[# 146]+0.037*[# 198]+
          +0.036*[# 185]+0.032*[#  94]+0.032*[#  81]+0.030*[# 172]+0.030*[# 159]+
          +0.027*[#  68]+0.027*[#  55]+0.001*[# 186]+0.001*[# 199]+0.001*[#  83]+
          +0.001*[#  69]+0.001*[#  96]+0.001*[#  56]+
    |psi|^2 = 1.000
     e =   -48.37234 eV
     psi = 0.191*[# 121]+0.140*[# 147]+0.128*[# 108]+0.083*[# 134]+0.069*[#  82]+
          +0.069*[#  95]+0.069*[# 199]+0.063*[# 186]+0.041*[#  69]+0.040*[#  56]+
          +0.036*[# 173]+0.036*[# 160]+0.003*[# 135]+0.002*[# 200]+0.002*[# 251]+
          +0.002*[#  96]+0.002*[# 109]+0.002*[# 148]+0.001*[#  43]+0.001*[#  94]+
          +0.001*[# 238]+0.001*[#  30]+0.001*[# 120]+0.001*[# 122]+0.001*[# 150]+
    |psi|^2 = 1.000
     e =   -48.37196 eV
     psi = 0.197*[# 135]+0.139*[# 148]+0.133*[# 109]+0.082*[# 122]+0.063*[# 200]+
          +0.062*[# 187]+0.057*[#  83]+0.056*[#  96]+0.054*[#  70]+0.051*[#  57]+
          +0.036*[# 174]+0.034*[# 161]+0.002*[# 121]+0.002*[# 186]+0.002*[# 147]+
          +0.002*[# 108]+0.002*[# 252]+0.001*[#  44]+0.001*[# 226]+0.001*[#  18]+
          +0.001*[#  81]+0.001*[#  82]+0.001*[#  68]+0.001*[# 151]+0.001*[# 134]+
          +0.001*[# 173]+
    |psi|^2 = 1.000
     e =   -48.32828 eV
     psi = 0.265*[# 146]+0.248*[# 107]+0.178*[# 133]+0.177*[# 120]+0.021*[# 200]+
          +0.019*[# 187]+0.012*[# 199]+0.010*[# 186]+0.009*[# 173]+0.008*[# 160]+
          +0.007*[#  57]+0.006*[#  70]+0.004*[#  56]+0.004*[# 161]+0.004*[# 174]+
          +0.003*[#  69]+0.002*[# 149]+0.002*[# 214]+0.001*[# 123]+0.001*[# 136]+
          +0.001*[# 108]+0.001*[# 211]+
    |psi|^2 = 1.000
     e =   -48.31991 eV
     psi = 0.172*[# 200]+0.161*[#  57]+0.159*[# 187]+0.156*[#  70]+0.030*[#  56]+
          +0.027*[# 107]+0.025*[#  69]+0.025*[# 199]+0.023*[# 120]+0.020*[#  83]+
          +0.019*[# 133]+0.019*[# 146]+0.018*[#  96]+0.017*[# 186]+0.015*[#  82]+
          +0.014*[# 161]+0.013*[# 174]+0.012*[# 173]+0.011*[#  95]+0.010*[# 160]+
          +0.006*[# 147]+0.003*[#   3]+0.003*[# 145]+0.003*[# 250]+0.003*[# 106]+
          +0.003*[# 211]+0.003*[#  42]+0.002*[#   6]+0.002*[# 253]+0.002*[# 198]+
          +0.001*[#  45]+0.001*[# 185]+0.001*[#   2]+0.001*[# 214]+0.001*[# 249]+
    |psi|^2 = 1.000
     e =   -48.31559 eV
     psi = 0.132*[# 199]+0.130*[#  56]+0.104*[#  69]+0.092*[# 186]+0.086*[# 173]+
          +0.081*[#  82]+0.071*[# 160]+0.059*[#  95]+0.045*[# 200]+0.044*[# 187]+
          +0.037*[#  57]+0.037*[#  70]+0.005*[# 161]+0.005*[# 224]+0.004*[# 174]+
          +0.004*[#  83]+0.004*[# 237]+0.004*[#  96]+0.004*[# 121]+0.004*[# 119]+
          +0.004*[# 132]+0.003*[#  29]+0.003*[#  16]+0.002*[# 146]+0.002*[# 227]+
          +0.002*[#  32]+0.002*[# 240]+0.002*[#  19]+0.002*[# 107]+0.002*[# 120]+
          +0.001*[# 223]+0.001*[#  28]+0.001*[# 133]+0.001*[# 134]+0.001*[# 147]+
          +0.001*[# 236]+0.001*[#  15]+
    |psi|^2 = 1.000
     e =   -48.30706 eV
     psi = 0.236*[# 186]+0.190*[# 199]+0.126*[#  95]+0.117*[#  69]+0.095*[#  82]+
          +0.086*[#  56]+0.064*[# 160]+0.043*[# 173]+0.004*[# 226]+0.004*[# 252]+
          +0.003*[# 239]+0.003*[#   5]+0.003*[#  44]+0.003*[# 148]+0.003*[# 213]+
          +0.002*[#  18]+0.002*[#  31]+0.002*[# 200]+0.002*[# 187]+
    |psi|^2 = 1.000
     e =   -48.29929 eV
     psi = 0.220*[# 174]+0.219*[#  96]+0.216*[#  83]+0.209*[# 161]+0.026*[# 200]+
          +0.022*[# 187]+0.020*[#  57]+0.020*[#  70]+0.003*[# 225]+0.003*[# 238]+
          +0.003*[# 251]+0.002*[#   4]+0.002*[#  43]+0.002*[#  17]+0.002*[#  30]+
          +0.002*[# 107]+0.002*[# 212]+0.001*[# 108]+0.001*[# 120]+0.001*[# 133]+
    |psi|^2 = 1.000
     e =   -48.27821 eV
     psi = 0.255*[# 148]+0.238*[# 122]+0.214*[# 109]+0.204*[# 135]+0.021*[# 187]+
          +0.020*[# 200]+0.006*[#  82]+0.006*[# 151]+0.006*[# 125]+0.006*[#  95]+
          +0.005*[# 138]+0.004*[#  56]+0.004*[#  69]+0.003*[# 112]+0.001*[# 199]+
    |psi|^2 = 1.000
     e =   -48.27715 eV
     psi = 0.251*[# 134]+0.251*[# 147]+0.233*[# 108]+0.212*[# 121]+0.006*[# 137]+
          +0.006*[# 150]+0.005*[# 124]+0.005*[# 173]+0.004*[# 111]+0.004*[# 160]+
          +0.003*[#  70]+0.003*[#  57]+0.002*[# 199]+0.002*[#  83]+0.002*[# 186]+
          +0.002*[#  96]+0.001*[#  69]+0.001*[#  56]+0.001*[# 174]+
    |psi|^2 = 1.000
     e =   -48.26889 eV
     psi = 0.330*[# 187]+0.313*[# 200]+0.045*[#  70]+0.042*[#  83]+0.039*[#  96]+
          +0.037*[#  57]+0.026*[# 198]+0.023*[# 161]+0.021*[# 174]+0.020*[# 185]+
          +0.019*[# 122]+0.015*[# 109]+0.009*[# 173]+0.008*[# 160]+0.006*[# 135]+
          +0.006*[# 203]+0.006*[# 190]+0.005*[# 159]+0.005*[# 172]+0.004*[#  55]+
          +0.002*[#  68]+0.001*[#  82]+0.001*[# 239]+
    |psi|^2 = 1.000
     e =   -48.26050 eV
     psi = 0.159*[#  82]+0.143*[#  95]+0.120*[#  56]+0.111*[#  69]+0.097*[#  96]+
          +0.097*[#  83]+0.072*[#  57]+0.071*[#  70]+0.029*[# 173]+0.023*[# 160]+
          +0.020*[# 199]+0.016*[# 186]+0.004*[#  55]+0.004*[#  68]+0.003*[#  85]+
          +0.003*[#  94]+0.003*[#  81]+0.003*[#  98]+0.003*[#  59]+0.002*[#  72]+
          +0.002*[#  86]+0.002*[#  99]+0.002*[# 109]+0.002*[# 198]+0.002*[#  60]+
          +0.002*[#  73]+0.001*[# 185]+0.001*[# 161]+0.001*[# 174]+
    |psi|^2 = 1.000
     e =   -48.25924 eV
     psi = 0.153*[#  83]+0.152*[#  96]+0.148*[#  57]+0.146*[#  70]+0.086*[#  82]+
          +0.066*[#  95]+0.048*[#  56]+0.044*[# 173]+0.038*[#  69]+0.031*[# 160]+
          +0.030*[# 199]+0.020*[# 186]+0.003*[#  86]+0.003*[#  99]+0.003*[#  60]+
          +0.003*[#  73]+0.003*[# 200]+0.003*[# 187]+0.003*[# 174]+0.002*[# 161]+
          +0.002*[# 198]+0.001*[# 135]+0.001*[#  85]+0.001*[#  55]+0.001*[#  59]+
          +0.001*[#  98]+
    |psi|^2 = 1.000
     e =   -48.25673 eV
     psi = 0.254*[# 173]+0.159*[# 199]+0.121*[#  69]+0.094*[# 160]+0.061*[# 198]+
          +0.055*[#  95]+0.050*[# 186]+0.043*[#  56]+0.029*[#  55]+0.023*[# 159]+
          +0.019*[#  96]+0.017*[#  83]+0.014*[#  94]+0.013*[# 200]+0.011*[# 187]+
          +0.005*[# 202]+0.004*[# 176]+0.003*[# 135]+0.002*[#  72]+0.002*[# 163]+
          +0.002*[# 109]+0.002*[# 189]+0.002*[#  98]+0.001*[#  68]+
    |psi|^2 = 1.000
     e =   -48.25591 eV
     psi = 0.176*[# 198]+0.166*[# 185]+0.119*[#  68]+0.117*[#  55]+0.069*[# 172]+
          +0.068*[#  81]+0.064*[# 159]+0.059*[#  94]+0.039*[# 160]+0.028*[# 186]+
          +0.016*[# 173]+0.013*[#  56]+0.008*[#  82]+0.007*[#  69]+0.006*[# 199]+
          +0.003*[# 146]+0.002*[# 106]+0.002*[# 132]+0.002*[# 119]+0.002*[# 145]+
          +0.002*[# 147]+0.002*[#  57]+0.001*[# 121]+0.001*[#  70]+0.001*[# 162]+
          +0.001*[# 175]+0.001*[# 211]+
    |psi|^2 = 1.000
     e =   -48.25349 eV
     psi = 0.199*[# 160]+0.147*[# 186]+0.142*[#  82]+0.139*[#  95]+0.095*[#  56]+
          +0.068*[# 173]+0.057*[#  69]+0.053*[# 199]+0.023*[# 198]+0.014*[#  55]+
          +0.011*[# 159]+0.006*[#  94]+0.003*[# 189]+0.003*[#  83]+0.003*[# 187]+
          +0.002*[# 107]+0.002*[# 163]+0.002*[# 225]+0.002*[#  59]+0.002*[# 238]+
          +0.002*[#  85]+0.002*[# 251]+0.002*[# 120]+0.002*[# 133]+0.001*[#  30]+
          +0.001*[# 121]+0.001*[#  17]+0.001*[#  43]+0.001*[#  98]+0.001*[#   4]+
          +0.001*[#  72]+
    |psi|^2 = 1.000
     e =   -48.25120 eV
     psi = 0.254*[# 185]+0.176*[# 198]+0.104*[# 172]+0.099*[#  68]+0.062*[# 159]+
          +0.056*[#  55]+0.039*[#  81]+0.034*[# 160]+0.019*[# 186]+0.018*[#  96]+
          +0.018*[#  56]+0.016*[#  83]+0.016*[#  94]+0.012*[# 173]+0.011*[# 200]+
          +0.011*[# 187]+0.010*[#  82]+0.005*[#  69]+0.005*[# 199]+0.004*[# 161]+
          +0.004*[# 174]+0.004*[#  70]+0.003*[#  57]+0.002*[# 109]+0.002*[# 148]+
          +0.001*[# 122]+0.001*[# 201]+
    |psi|^2 = 1.000
     e =   -48.24194 eV
     psi = 0.320*[# 161]+0.317*[# 174]+0.102*[#  57]+0.100*[#  70]+0.041*[#  96]+
          +0.038*[#  83]+0.009*[# 185]+0.008*[# 198]+0.006*[#  68]+0.006*[# 164]+
          +0.006*[# 177]+0.006*[# 187]+0.005*[# 200]+0.005*[#  55]+0.004*[# 135]+
          +0.003*[# 109]+0.002*[#  60]+0.002*[#  73]+0.002*[#  81]+0.002*[# 122]+
          +0.001*[# 239]+0.001*[# 172]+
    |psi|^2 = 1.000
     e =   -48.22138 eV
     psi = 0.316*[#  94]+0.277*[#  81]+0.122*[# 198]+0.115*[# 185]+0.070*[#  55]+
          +0.069*[#  68]+0.002*[#  84]+0.002*[#  97]+0.002*[# 201]+0.002*[# 188]+
          +0.002*[# 148]+0.002*[#  57]+0.001*[#  70]+0.001*[#  56]+
    |psi|^2 = 1.000
     e =   -48.20990 eV
     psi = 0.194*[#  81]+0.160*[#  94]+0.158*[# 172]+0.137*[# 159]+0.117*[# 185]+
          +0.088*[# 198]+0.041*[#  68]+0.032*[#  55]+0.006*[# 147]+0.005*[# 146]+
          +0.004*[#  70]+0.004*[# 121]+0.004*[# 108]+0.004*[#  57]+0.003*[# 238]+
          +0.003*[# 120]+0.003*[# 225]+0.002*[#  43]+0.002*[# 251]+0.002*[#  17]+
          +0.002*[# 188]+0.002*[# 212]+0.002*[# 201]+0.001*[#  30]+0.001*[# 133]+
          +0.001*[#  71]+0.001*[# 241]+0.001*[#   4]+
    |psi|^2 = 1.000
     e =   -48.20312 eV
     psi = 0.275*[# 159]+0.251*[# 172]+0.190*[#  55]+0.187*[#  68]+0.023*[#  94]+
          +0.012*[#  81]+0.010*[# 198]+0.006*[# 185]+0.005*[# 109]+0.003*[# 162]+
          +0.003*[# 148]+0.003*[# 175]+0.002*[#  58]+0.002*[# 226]+0.002*[#  71]+
          +0.002*[#  44]+0.002*[# 213]+0.002*[# 239]+0.002*[# 252]+0.001*[#  18]+
          +0.001*[#  31]+0.001*[#  83]+0.001*[#  96]+
    |psi|^2 = 1.000
     e =   -48.18640 eV
     psi = 0.186*[# 120]+0.170*[# 133]+0.089*[#  57]+0.084*[#  70]+0.064*[# 187]+
          +0.063*[# 200]+0.045*[#  56]+0.040*[#  69]+0.039*[# 121]+0.029*[# 199]+
          +0.027*[# 186]+0.024*[# 134]+0.020*[# 173]+0.016*[# 160]+0.011*[#  82]+
          +0.009*[#  95]+0.009*[# 174]+0.008*[# 123]+0.008*[# 136]+0.007*[# 161]+
          +0.007*[# 108]+0.006*[# 147]+0.006*[#  83]+0.005*[#  96]+0.003*[#  55]+
          +0.003*[#  68]+0.002*[# 146]+
    |psi|^2 = 1.000
     e =   -48.18030 eV
     psi = 0.130*[# 146]+0.107*[# 107]+0.068*[#  56]+0.051*[#  70]+0.051*[# 173]+
          +0.048*[#  57]+0.046*[# 108]+0.044*[# 147]+0.043*[#  55]+0.043*[# 133]+
          +0.036*[# 121]+0.036*[# 187]+0.036*[# 199]+0.034*[#  69]+0.032*[#  68]+
          +0.031*[#  82]+0.031*[# 200]+0.019*[# 160]+0.019*[# 186]+0.010*[#  95]+
          +0.008*[# 159]+0.008*[# 172]+0.007*[# 134]+0.006*[# 174]+0.005*[# 110]+
          +0.004*[# 161]+0.004*[# 149]+0.004*[#  83]+0.004*[# 135]+0.003*[# 120]+
          +0.003*[#  96]+0.002*[# 109]+0.002*[# 122]+0.002*[# 148]+0.001*[# 185]+
          +0.001*[# 198]+0.001*[#   4]+
    |psi|^2 = 1.000
     e =   -48.17897 eV
     psi = 0.174*[# 135]+0.110*[# 160]+0.087*[# 109]+0.084*[#  69]+0.083*[# 122]+
          +0.073*[# 173]+0.070*[#  95]+0.065*[# 148]+0.051*[# 186]+0.050*[#  82]+
          +0.046*[#  56]+0.028*[# 199]+0.009*[#  68]+0.005*[# 161]+0.004*[#  81]+
          +0.004*[#  94]+0.004*[#  57]+0.004*[# 138]+0.004*[# 200]+0.002*[# 146]+
          +0.002*[#  96]+0.002*[# 107]+0.002*[#  18]+0.002*[# 226]+0.002*[#  55]+
          +0.002*[# 133]+0.002*[# 163]+0.002*[# 174]+0.002*[# 239]+0.001*[#   5]+
          +0.001*[# 112]+0.001*[# 125]+0.001*[#  72]+0.001*[# 151]+0.001*[# 176]+
          +0.001*[#  98]+0.001*[# 108]+0.001*[# 147]+
    |psi|^2 = 1.000
     e =   -48.17567 eV
     psi = 0.130*[# 174]+0.129*[# 161]+0.110*[# 121]+0.100*[#  83]+0.094*[#  96]+
          +0.084*[# 146]+0.065*[# 134]+0.050*[# 107]+0.040*[# 120]+0.030*[# 108]+
          +0.023*[# 147]+0.017*[#  81]+0.016*[#  94]+0.013*[#  69]+0.012*[#  56]+
          +0.009*[# 186]+0.008*[# 199]+0.007*[# 159]+0.007*[# 172]+0.005*[#  55]+
          +0.004*[#  68]+0.003*[# 185]+0.003*[# 198]+0.003*[# 110]+0.003*[# 149]+
          +0.003*[# 124]+0.003*[# 133]+0.002*[# 187]+0.002*[#  70]+0.002*[#  86]+
          +0.001*[#  99]+0.001*[# 164]+0.001*[# 177]+0.001*[# 137]+0.001*[# 238]+
          +0.001*[# 200]+0.001*[# 225]+
    |psi|^2 = 1.000
     e =   -48.16499 eV
     psi = 0.134*[# 122]+0.132*[# 148]+0.096*[# 109]+0.090*[# 161]+0.089*[# 174]+
          +0.064*[#  70]+0.060*[#  57]+0.059*[#  83]+0.057*[#  96]+0.041*[# 187]+
          +0.038*[# 200]+0.030*[# 135]+0.018*[#  81]+0.016*[#  68]+0.012*[#  55]+
          +0.011*[#  94]+0.004*[# 125]+0.004*[# 151]+0.003*[#  82]+0.003*[# 173]+
          +0.003*[# 172]+0.003*[#  69]+0.002*[# 112]+0.002*[# 164]+0.002*[# 177]+
          +0.002*[# 134]+0.002*[#   5]+0.002*[# 147]+0.002*[# 159]+0.002*[# 108]+
          +0.001*[#  86]+0.001*[#  31]+0.001*[#  60]+0.001*[#  73]+0.001*[#  99]+
          +0.001*[# 186]+
    |psi|^2 = 1.000
     e =   -48.16483 eV
     psi = 0.124*[# 147]+0.119*[# 134]+0.110*[# 108]+0.099*[# 160]+0.090*[# 173]+
          +0.080*[#  95]+0.076*[#  82]+0.043*[#  56]+0.040*[#  69]+0.032*[# 186]+
          +0.032*[# 199]+0.030*[# 121]+0.021*[#  94]+0.014*[#  81]+0.010*[# 146]+
          +0.009*[# 159]+0.006*[# 172]+0.006*[# 161]+0.005*[# 133]+0.005*[#  96]+
          +0.004*[#  55]+0.004*[# 137]+0.003*[# 150]+0.003*[# 107]+0.002*[# 111]+
          +0.002*[#  57]+0.002*[# 148]+0.002*[#  85]+0.002*[#  98]+0.002*[# 122]+
          +0.002*[# 163]+0.001*[#   4]+0.001*[# 109]+0.001*[# 176]+0.001*[#  68]+
          +0.001*[# 189]+
    |psi|^2 = 1.000
     e =   -48.15531 eV
     psi = 0.208*[# 107]+0.152*[#  55]+0.144*[#  68]+0.066*[# 185]+0.065*[# 198]+
          +0.059*[# 172]+0.058*[# 159]+0.044*[# 133]+0.036*[# 120]+0.028*[#  81]+
          +0.025*[#  94]+0.006*[# 174]+0.006*[# 161]+0.006*[# 108]+0.005*[# 187]+
          +0.005*[# 200]+0.005*[# 160]+0.005*[# 173]+0.004*[#  57]+0.004*[#  70]+
          +0.004*[# 121]+0.004*[# 146]+0.004*[#  83]+0.004*[# 134]+0.004*[# 147]+
          +0.003*[#  56]+0.003*[#  96]+0.003*[#  69]+0.003*[# 186]+0.003*[# 199]+
          +0.003*[#  82]+0.003*[#  95]+0.002*[#  41]+0.002*[# 110]+0.002*[# 249]+
          +0.001*[# 250]+0.001*[#  42]+0.001*[#  15]+0.001*[# 149]+
    |psi|^2 = 1.000
     e =   -48.13439 eV
     psi = 0.191*[# 109]+0.103*[# 172]+0.094*[#  81]+0.088*[#  68]+0.078*[# 135]+
          +0.077*[# 159]+0.068*[#  94]+0.066*[#  55]+0.052*[# 185]+0.043*[# 122]+
          +0.037*[# 198]+0.022*[# 148]+0.007*[# 174]+0.005*[# 161]+0.004*[# 112]+
          +0.004*[# 187]+0.003*[# 200]+0.003*[#  70]+0.003*[#  83]+0.002*[#  57]+
          +0.002*[# 173]+0.002*[# 252]+0.002*[#  84]+0.002*[#  96]+0.002*[# 175]+
          +0.002*[#  44]+0.002*[#  71]+0.002*[# 138]+0.002*[#  97]+0.001*[# 160]+
          +0.001*[# 162]+0.002*[# 226]+0.001*[# 188]+0.001*[#  18]+0.001*[#  47]+
          +0.001*[#  58]+0.001*[# 186]+0.001*[# 255]+0.001*[#  31]+0.001*[# 108]+
          +0.001*[# 239]+
    |psi|^2 = 1.000
     e =   -48.13365 eV
     psi = 0.184*[# 108]+0.131*[# 159]+0.114*[#  94]+0.097*[# 172]+0.087*[#  81]+
          +0.064*[# 121]+0.061*[#  55]+0.049*[# 134]+0.042*[#  68]+0.035*[# 198]+
          +0.026*[# 185]+0.022*[# 147]+0.008*[# 107]+0.005*[# 160]+0.005*[# 161]+
          +0.004*[# 173]+0.004*[# 111]+0.003*[# 174]+0.003*[#  95]+0.002*[#  82]+
          +0.002*[# 251]+0.002*[#  97]+0.002*[#  96]+0.002*[# 120]+0.002*[#  43]+
          +0.002*[# 133]+0.002*[# 162]+0.002*[# 199]+0.001*[#  58]+0.002*[#  84]+
          +0.002*[# 201]+0.001*[#  83]+0.001*[# 124]+0.001*[# 200]+0.001*[# 225]+
          +0.001*[#  17]+0.001*[#  46]+0.001*[#  56]+0.001*[# 175]+0.001*[# 186]+
          +0.001*[#  30]+0.001*[# 188]+0.001*[#  71]+0.001*[# 238]+0.001*[# 254]+
    |psi|^2 = 1.000
     e =   -10.15110 eV
     psi = 0.678*[# 261]+0.114*[# 266]+0.114*[# 265]+0.029*[# 214]+0.013*[# 263]+
          +0.010*[# 210]+0.008*[# 262]+0.006*[# 240]+0.004*[# 227]+0.003*[# 217]+
          +0.002*[# 215]+
    |psi|^2 = 0.989
     e =    -2.31056 eV
     psi = 0.553*[# 264]+0.205*[# 265]+0.200*[# 266]+0.004*[# 216]+0.003*[# 219]+
          +0.001*[# 229]+0.001*[# 255]+
    |psi|^2 = 0.974
     e =    -2.25685 eV
     psi = 0.055*[# 132]+0.055*[# 106]+0.055*[# 119]+0.054*[# 145]+0.048*[# 158]+
          +0.048*[# 171]+0.048*[# 184]+0.047*[# 197]+0.045*[#  54]+0.045*[#  67]+
          +0.045*[#  80]+0.045*[#  93]+0.030*[# 210]+0.028*[# 236]+0.026*[# 223]+
          +0.026*[# 249]+0.023*[#   2]+0.023*[#  15]+0.023*[#  28]+0.023*[#  41]+
          +0.015*[# 262]+0.008*[#   6]+0.008*[#  19]+0.008*[#  32]+0.008*[#  45]+
          +0.008*[# 227]+0.008*[# 253]+0.008*[# 105]+0.008*[# 118]+0.008*[# 131]+
          +0.008*[# 144]+0.008*[# 240]+0.006*[# 214]+0.006*[# 157]+0.006*[# 170]+
          +0.006*[# 183]+0.006*[# 196]+0.005*[#  53]+0.005*[#  66]+0.005*[#  79]+
          +0.005*[#  92]+0.004*[#  58]+0.004*[#  71]+0.004*[#  84]+0.004*[#  97]+
          +0.003*[# 266]+0.003*[# 263]+0.003*[# 175]+0.003*[# 162]+0.002*[# 201]+
          +0.002*[# 188]+0.002*[# 264]+0.002*[# 209]+0.002*[# 222]+0.002*[# 235]+
          +0.002*[# 248]+0.001*[#   1]+0.001*[#  14]+0.001*[#  27]+0.001*[#  40]+
    |psi|^2 = 0.997
     e =    -1.32014 eV
     psi = 0.319*[# 262]+0.156*[# 263]+0.060*[# 266]+0.058*[# 265]+0.049*[# 261]+
          +0.042*[# 210]+0.018*[# 214]+0.015*[# 188]+0.015*[# 110]+0.015*[# 201]+
          +0.013*[# 236]+0.012*[# 218]+0.011*[# 162]+0.011*[# 136]+0.011*[# 175]+
          +0.010*[# 217]+0.010*[# 123]+0.009*[#  54]+0.009*[#  67]+0.009*[#  80]+
          +0.009*[#  93]+0.009*[# 149]+0.008*[#  15]+0.008*[#  28]+0.008*[#  41]+
          +0.008*[#   2]+0.006*[# 215]+0.005*[# 223]+0.004*[# 249]+0.004*[# 240]+
          +0.003*[# 209]+0.003*[# 241]+0.002*[# 244]+0.002*[# 119]+0.002*[# 158]+
          +0.002*[# 171]+0.002*[#  53]+0.002*[#  66]+0.002*[#  79]+0.002*[#  92]+
          +0.002*[# 132]+0.002*[# 145]+0.002*[# 184]+0.002*[# 106]+0.002*[# 197]+
          +0.002*[# 235]+0.001*[#  58]+0.001*[#  71]+0.001*[#  84]+0.001*[#  97]+
          +0.001*[# 246]+0.001*[#   1]+0.001*[#  14]+0.001*[#  19]+0.001*[#  27]+
          +0.001*[#  32]+0.001*[#  40]+0.001*[#  45]+0.001*[# 222]+
    |psi|^2 = 0.988
     e =    -0.61402 eV
     psi = 0.066*[# 263]+0.052*[# 262]+0.050*[# 149]+0.050*[# 123]+0.048*[# 136]+
          +0.043*[# 110]+0.029*[#   2]+0.028*[#  41]+0.028*[#  28]+0.028*[#  15]+
          +0.028*[# 249]+0.026*[# 223]+0.026*[# 261]+0.022*[# 184]+0.022*[# 197]+
          +0.021*[# 158]+0.021*[# 171]+0.020*[#  58]+0.020*[#  71]+0.020*[#  84]+
          +0.020*[#  97]+0.019*[#  80]+0.019*[#  93]+0.018*[#  54]+0.018*[#  67]+
          +0.018*[# 236]+0.017*[# 265]+0.016*[# 214]+0.016*[# 266]+0.010*[# 162]+
          +0.010*[# 175]+0.007*[# 188]+0.007*[# 201]+0.007*[# 240]+0.006*[# 210]+
          +0.006*[# 217]+0.006*[# 157]+0.006*[# 170]+0.005*[# 183]+0.005*[# 196]+
          +0.005*[# 218]+0.004*[#   1]+0.004*[# 248]+0.004*[#  14]+0.004*[#  27]+
          +0.004*[#  40]+0.004*[# 191]+0.004*[# 204]+0.004*[# 227]+0.004*[#  53]+
          +0.004*[#  66]+0.004*[#  79]+0.004*[#  92]+0.004*[# 222]+0.003*[# 253]+
          +0.003*[# 235]+0.003*[#  61]+0.003*[#  74]+0.003*[#  87]+0.003*[# 100]+
          +0.003*[# 165]+0.003*[# 178]+0.002*[# 215]+0.002*[# 209]+0.001*[# 120]+
          +0.002*[# 146]+0.001*[# 107]+0.001*[# 133]+0.001*[#   6]+0.001*[# 241]+
          +0.001*[# 244]+0.001*[#  22]+
    |psi|^2 = 0.995
     e =     0.82669 eV
     psi = 0.066*[# 127]+0.065*[# 153]+0.064*[# 140]+0.061*[# 114]+0.042*[# 103]+
          +0.039*[#  64]+0.036*[# 168]+0.033*[#  23]+0.032*[#  36]+0.032*[#  49]+
          +0.032*[#  10]+0.031*[# 207]+0.029*[# 231]+0.029*[# 257]+0.027*[#  90]+
          +0.027*[# 244]+0.025*[#  67]+0.024*[#  77]+0.023*[# 181]+0.022*[#  80]+
          +0.021*[# 218]+0.020*[# 184]+0.019*[# 171]+0.019*[# 194]+0.016*[#  54]+
          +0.014*[#  93]+0.013*[# 197]+0.012*[# 158]+0.009*[#  74]+0.008*[# 178]+
          +0.008*[# 191]+0.007*[#  87]+0.006*[#   7]+0.006*[#  20]+0.006*[#  33]+
          +0.006*[#  46]+0.006*[#  61]+0.005*[# 165]+0.005*[# 228]+0.005*[# 254]+
          +0.005*[# 204]+0.005*[# 241]+0.004*[# 100]+0.003*[# 215]+0.002*[# 263]+
          +0.001*[#  71]+0.001*[# 188]+0.002*[# 262]+0.001*[#  58]+0.001*[# 201]+
    |psi|^2 = 0.998
     e =     0.82824 eV
     psi = 0.067*[# 141]+0.066*[# 154]+0.066*[# 128]+0.062*[# 115]+0.042*[#  90]+
          +0.042*[#  77]+0.034*[#  37]+0.034*[#  24]+0.034*[#  50]+0.034*[# 194]+
          +0.033*[#  11]+0.033*[# 181]+0.029*[# 245]+0.029*[# 258]+0.026*[#  64]+
          +0.026*[# 103]+0.026*[# 232]+0.025*[#  54]+0.024*[#  93]+0.021*[# 207]+
          +0.021*[# 168]+0.020*[# 219]+0.020*[# 197]+0.019*[# 158]+0.015*[#  80]+
          +0.015*[#  67]+0.012*[# 171]+0.012*[# 184]+0.008*[#  61]+0.008*[# 100]+
          +0.008*[# 165]+0.008*[# 204]+0.006*[#   8]+0.006*[#  21]+0.006*[#  34]+
          +0.006*[#  47]+0.005*[# 255]+0.005*[#  74]+0.005*[#  87]+0.005*[# 229]+
          +0.005*[# 242]+0.005*[# 178]+0.005*[# 191]+0.004*[# 216]+
    |psi|^2 = 0.998
     e =     0.93339 eV
     psi = 0.141*[# 263]+0.052*[# 113]+0.051*[# 152]+0.033*[# 175]+0.033*[# 162]+
          +0.033*[# 210]+0.032*[#  58]+0.032*[#  71]+0.031*[#  84]+0.031*[#  97]+
          +0.028*[# 262]+0.025*[# 201]+0.025*[# 188]+0.022*[#  41]+0.021*[# 126]+
          +0.020*[#   2]+0.017*[# 223]+0.016*[# 261]+0.016*[# 139]+0.016*[# 249]+
          +0.014*[#  15]+0.014*[# 119]+0.014*[# 145]+0.014*[# 243]+0.013*[#  28]+
          +0.013*[# 132]+0.012*[#  22]+0.012*[#  35]+0.011*[# 230]+0.007*[#  48]+
          +0.007*[# 129]+0.005*[# 256]+0.005*[# 236]+0.005*[# 142]+0.005*[# 217]+
          +0.004*[# 169]+0.004*[# 182]+0.004*[#  87]+0.004*[# 144]+0.004*[# 195]+
          +0.004*[# 208]+0.004*[# 100]+0.004*[#  80]+0.003*[# 178]+0.003*[#  64]+
          +0.003*[# 165]+0.003*[#  93]+0.003*[# 131]+0.003*[# 191]+0.003*[# 204]+
          +0.003*[# 209]+0.003*[#  65]+0.003*[#  77]+0.003*[#  78]+0.003*[#  91]+
          +0.003*[# 104]+0.003*[# 118]+0.002*[#  10]+0.002*[#  23]+0.002*[#  36]+
          +0.002*[#  49]+0.002*[# 218]+0.002*[# 227]+0.002*[# 103]+0.002*[# 163]+
          +0.002*[# 176]+0.002*[# 189]+0.002*[# 202]+0.002*[# 244]+0.002*[#   1]+
          +0.002*[# 220]+0.002*[# 265]+0.002*[#  61]+0.002*[# 266]+0.002*[#  74]+
          +0.002*[# 215]+0.001*[#  19]+0.001*[#  32]+0.001*[#  90]+0.001*[#  14]+
          +0.001*[#  27]+0.001*[#  63]+0.001*[#  76]+0.001*[# 167]+0.001*[# 180]+
          +0.001*[#  89]+0.001*[# 102]+0.001*[# 159]+0.001*[# 172]+0.001*[# 222]+
          +0.001*[#  40]+0.001*[#  55]+0.001*[#  68]+0.001*[#  81]+0.001*[#  94]+
          +0.001*[# 127]+0.001*[# 153]+0.001*[# 193]+0.001*[# 206]+0.001*[# 241]+
    |psi|^2 = 0.997
     e =     0.95805 eV
     psi = 0.131*[# 116]+0.108*[# 155]+0.069*[# 119]+0.069*[# 132]+0.026*[# 166]+
          +0.025*[# 179]+0.026*[# 192]+0.026*[# 205]+0.025*[#  62]+0.025*[#  75]+
          +0.025*[#  88]+0.025*[# 101]+0.022*[# 193]+0.022*[# 206]+0.021*[#  63]+
          +0.021*[#  76]+0.021*[#  89]+0.021*[# 102]+0.021*[# 167]+0.021*[# 180]+
          +0.016*[# 230]+0.016*[# 243]+0.014*[#  22]+0.014*[#  35]+0.008*[#  59]+
          +0.008*[#  72]+0.008*[#  85]+0.008*[#  98]+0.008*[# 163]+0.008*[# 176]+
          +0.008*[# 189]+0.008*[# 202]+0.007*[#  60]+0.007*[#  73]+0.007*[#  86]+
          +0.007*[#  99]+0.007*[# 164]+0.007*[# 177]+0.007*[# 190]+0.007*[# 203]+
          +0.006*[#  51]+0.006*[# 259]+0.006*[# 139]+0.005*[# 131]+0.005*[# 118]+
          +0.004*[# 220]+0.003*[#  12]+0.003*[# 126]+0.002*[#  28]+0.002*[# 227]+
          +0.002*[# 236]+0.002*[#  19]+0.002*[#  32]+0.002*[# 240]+0.001*[#  15]+
          +0.001*[# 129]+0.001*[# 223]+
    |psi|^2 = 0.998
     e =     0.96638 eV
     psi = 0.113*[# 142]+0.110*[# 129]+0.067*[# 145]+0.059*[# 106]+0.031*[# 113]+
          +0.026*[# 256]+0.024*[#  63]+0.024*[#  76]+0.024*[#  89]+0.024*[# 102]+
          +0.023*[# 193]+0.023*[# 206]+0.023*[# 167]+0.023*[# 180]+0.020*[# 166]+
          +0.020*[# 179]+0.020*[# 192]+0.020*[# 205]+0.020*[#  62]+0.020*[#  75]+
          +0.020*[#  88]+0.020*[# 101]+0.019*[#  48]+0.008*[#   9]+0.007*[#  60]+
          +0.007*[#  73]+0.007*[#  86]+0.007*[#  99]+0.007*[# 164]+0.007*[# 177]+
          +0.007*[# 190]+0.007*[# 203]+0.006*[#  59]+0.006*[#  72]+0.006*[#  85]+
          +0.006*[#  98]+0.006*[# 163]+0.006*[# 176]+0.006*[# 210]+0.006*[# 189]+
          +0.006*[# 202]+0.005*[#   2]+0.005*[# 105]+0.005*[#  25]+0.005*[# 233]+
          +0.005*[#  38]+0.004*[# 246]+0.003*[# 144]+0.003*[# 253]+0.003*[# 169]+
          +0.003*[# 182]+0.003*[# 195]+0.003*[# 208]+0.003*[# 132]+0.003*[# 263]+
          +0.002*[#  45]+0.002*[# 191]+0.002*[# 204]+0.002*[# 165]+0.002*[# 178]+
          +0.002*[# 217]+0.002*[#  65]+0.002*[#  78]+0.002*[#  91]+0.002*[# 104]+
          +0.001*[#  58]+0.001*[#  71]+0.001*[#  84]+0.001*[#  97]+0.001*[# 152]+
          +0.001*[#  61]+0.001*[#  74]+0.001*[#  87]+0.001*[# 100]+
    |psi|^2 = 0.998
     e =     1.02080 eV
     psi = 0.080*[# 168]+0.064*[#  64]+0.047*[# 207]+0.038*[# 124]+0.038*[# 137]+
          +0.038*[# 150]+0.038*[# 111]+0.037*[# 171]+0.037*[# 103]+0.034*[# 184]+
          +0.034*[# 231]+0.033*[# 257]+0.030*[#  67]+0.029*[# 244]+0.028*[#  80]+
          +0.026*[#  10]+0.026*[#  23]+0.026*[#  49]+0.026*[#  36]+0.024*[# 218]+
          +0.019*[# 181]+0.015*[#  77]+0.009*[# 241]+0.009*[# 228]+0.009*[# 254]+
          +0.007*[# 215]+0.007*[# 112]+0.007*[# 125]+0.007*[# 138]+0.007*[# 151]+
          +0.007*[# 158]+0.006*[# 245]+0.006*[#   7]+0.006*[#  20]+0.006*[#  33]+
          +0.006*[#  46]+0.006*[# 258]+0.006*[# 197]+0.005*[# 232]+0.005*[#  54]+
          +0.005*[# 194]+0.005*[#  93]+0.004*[#  11]+0.004*[#  24]+0.004*[#  37]+
          +0.005*[#  50]+0.004*[# 219]+0.004*[# 170]+0.004*[# 183]+0.004*[#  79]+
          +0.004*[#  90]+0.003*[#  66]+0.003*[#  84]+0.003*[# 188]+0.002*[# 263]+
          +0.002*[# 108]+0.002*[# 121]+0.002*[# 126]+0.002*[# 134]+0.002*[# 142]+
          +0.002*[# 147]+0.002*[# 152]+0.002*[#  97]+0.002*[# 113]+0.001*[# 116]+
          +0.001*[# 139]+0.001*[# 229]+0.001*[# 242]+0.001*[# 255]+0.001*[# 155]+
          +0.001*[# 201]+0.001*[#   8]+0.001*[#  21]+0.001*[#  34]+0.001*[#  47]+
    |psi|^2 = 0.996
     e =     1.02090 eV
     psi = 0.067*[# 181]+0.059*[# 194]+0.054*[#  77]+0.047*[#  90]+0.039*[# 138]+
          +0.039*[# 125]+0.039*[# 151]+0.039*[# 112]+0.037*[# 197]+0.036*[# 158]+
          +0.035*[# 245]+0.034*[# 258]+0.031*[# 232]+0.029*[#  54]+0.029*[#  93]+
          +0.026*[#  11]+0.026*[#  24]+0.026*[#  37]+0.026*[#  50]+0.026*[# 219]+
          +0.013*[# 207]+0.010*[# 103]+0.009*[# 168]+0.008*[# 229]+0.008*[# 255]+
          +0.008*[# 242]+0.008*[#  64]+0.007*[# 124]+0.007*[# 171]+0.007*[# 111]+
          +0.007*[# 137]+0.007*[# 150]+0.006*[#   8]+0.006*[#  21]+0.006*[#  34]+
          +0.006*[#  47]+0.006*[# 184]+0.006*[# 216]+0.006*[# 231]+0.006*[# 257]+
          +0.005*[#  67]+0.005*[#  80]+0.005*[# 244]+0.004*[#  10]+0.004*[#  23]+
          +0.004*[#  36]+0.004*[#  49]+0.004*[# 157]+0.004*[# 196]+0.004*[# 218]+
          +0.004*[#  53]+0.004*[#  92]+0.002*[# 109]+0.002*[# 122]+0.002*[# 135]+
          +0.002*[# 148]+0.002*[# 263]+0.002*[# 208]+0.002*[# 241]+0.002*[# 228]+
          +0.002*[# 254]+0.001*[# 182]+0.001*[# 215]+0.001*[#  58]+0.001*[# 139]+
          +0.001*[# 217]+
    |psi|^2 = 0.996
     e =     1.02502 eV
     psi = 0.093*[# 139]+0.091*[# 126]+0.052*[# 169]+0.051*[# 195]+0.051*[# 182]+
          +0.050*[# 208]+0.046*[#  91]+0.046*[# 104]+0.046*[#  65]+0.046*[#  78]+
          +0.036*[# 217]+0.032*[# 106]+0.025*[# 263]+0.020*[#   9]+0.017*[# 236]+
          +0.014*[# 145]+0.014*[# 243]+0.013*[# 262]+0.013*[#  15]+0.013*[#  28]+
          +0.012*[#  48]+0.012*[# 223]+0.012*[# 256]+0.011*[# 230]+0.010*[#  35]+
          +0.008*[#  22]+0.007*[#  71]+0.007*[#  97]+0.007*[# 201]+0.006*[# 175]+
          +0.006*[#  58]+0.006*[#  84]+0.006*[# 188]+0.006*[# 132]+0.005*[# 162]+
          +0.005*[# 165]+0.005*[# 191]+0.005*[# 178]+0.005*[# 204]+0.004*[# 119]+
          +0.004*[#   6]+0.003*[# 113]+0.003*[# 210]+0.003*[#  74]+0.003*[#  61]+
          +0.003*[# 100]+0.003*[#  87]+0.002*[#  45]+0.002*[# 129]+0.002*[# 105]+
          +0.002*[# 227]+0.002*[# 253]+0.002*[# 233]+0.002*[# 152]+0.002*[#  32]+
          +0.002*[# 181]+0.002*[# 207]+0.002*[# 240]+0.001*[#  77]+0.001*[# 158]+
          +0.001*[#  19]+0.001*[# 184]+0.001*[# 163]+0.001*[# 189]+0.001*[# 103]+
    |psi|^2 = 0.998
     e =     1.05620 eV
     psi = 0.083*[# 155]+0.073*[# 207]+0.070*[# 142]+0.070*[# 103]+0.070*[# 194]+
          +0.068*[# 129]+0.068*[#  90]+0.056*[# 116]+0.050*[#  77]+0.048*[#  64]+
          +0.044*[# 181]+0.041*[# 168]+0.037*[# 259]+0.031*[#  12]+0.030*[#  25]+
          +0.029*[#  38]+0.029*[#  51]+0.028*[# 233]+0.028*[# 246]+0.017*[# 220]+
          +0.001*[# 231]+
    |psi|^2 = 0.995
     e =     1.09594 eV
     psi = 0.061*[#   9]+0.057*[# 217]+0.050*[#  61]+0.050*[#  74]+0.048*[#  87]+
          +0.048*[# 100]+0.046*[# 152]+0.043*[# 113]+0.042*[#  48]+0.042*[#  22]+
          +0.042*[#  35]+0.040*[# 191]+0.040*[# 204]+0.040*[# 165]+0.040*[# 178]+
          +0.036*[# 256]+0.034*[# 243]+0.033*[# 230]+0.033*[# 126]+0.032*[# 139]+
          +0.009*[#  15]+0.009*[#  28]+0.008*[#   2]+0.008*[# 236]+0.007*[# 249]+
          +0.007*[# 223]+0.006*[#  41]+0.005*[#   6]+0.004*[# 106]+0.003*[#  84]+
          +0.003*[#  97]+0.003*[#  45]+0.003*[# 210]+0.003*[#  19]+0.003*[#  32]+
          +0.003*[#  58]+0.003*[#  71]+0.003*[# 142]+0.003*[# 188]+0.003*[# 201]+
          +0.003*[# 227]+0.002*[# 162]+0.003*[# 175]+0.002*[# 253]+0.002*[# 129]+
          +0.002*[# 240]+0.002*[# 262]+0.002*[# 214]+
    |psi|^2 = 0.994
     e =     1.18992 eV
     psi = 0.093*[# 130]+0.093*[# 143]+0.093*[# 117]+0.092*[# 156]+0.033*[#  26]+
          +0.033*[#  39]+0.033*[#  52]+0.033*[#  13]+0.032*[# 247]+0.032*[# 260]+
          +0.032*[#  61]+0.032*[# 165]+0.032*[#  74]+0.032*[# 100]+0.032*[#  87]+
          +0.031*[# 178]+0.031*[# 204]+0.031*[# 234]+0.031*[# 191]+0.030*[# 221]+
          +0.014*[#  80]+0.014*[#  93]+0.013*[# 184]+0.013*[#  67]+0.013*[# 197]+
          +0.013*[#  54]+0.013*[# 171]+0.013*[# 158]+0.001*[#  58]+
    |psi|^2 = 0.999
     e =     1.22850 eV
     psi = 0.236*[# 263]+0.123*[# 262]+0.076*[# 152]+0.047*[# 249]+0.043*[# 233]+
          +0.039*[# 246]+0.036*[# 217]+0.021*[# 210]+0.020*[#  65]+0.020*[#  78]+
          +0.020*[#  91]+0.020*[# 104]+0.012*[#  41]+0.011*[# 189]+0.011*[# 163]+
          +0.011*[# 202]+0.011*[# 176]+0.009*[# 166]+0.009*[# 179]+0.008*[# 192]+
          +0.008*[# 205]+0.008*[#  22]+0.008*[# 119]+0.007*[# 236]+0.007*[# 261]+
          +0.006*[# 113]+0.006*[#  35]+0.006*[#  48]+0.006*[# 195]+0.006*[# 208]+
          +0.006*[# 230]+0.005*[# 132]+0.005*[# 169]+0.005*[# 182]+0.005*[# 188]+
          +0.004*[# 201]+0.004*[# 214]+0.004*[# 220]+0.004*[# 167]+0.003*[# 180]+
          +0.004*[# 193]+0.004*[# 206]+0.003*[#   9]+0.003*[# 164]+0.003*[# 177]+
          +0.003*[# 175]+0.003*[# 190]+0.003*[# 203]+0.003*[# 243]+0.003*[# 162]+
          +0.003*[# 259]+0.003*[#  38]+0.003*[#  71]+0.003*[# 248]+0.002*[#  58]+
          +0.002*[#  84]+0.002*[#  97]+0.002*[#  25]+0.002*[# 178]+0.002*[#  74]+
          +0.002*[# 165]+0.002*[# 215]+0.002*[# 241]+0.002*[#  61]+0.001*[#  19]+
          +0.001*[#  87]+0.001*[# 191]+0.001*[#  45]+0.001*[# 100]+0.001*[# 110]+
          +0.001*[# 136]+0.001*[# 145]+0.001*[# 204]+0.001*[#   2]+0.001*[# 244]+
    |psi|^2 = 0.998
     e =     1.44837 eV
     psi = 0.064*[# 243]+0.062*[# 256]+0.060*[# 230]+0.059*[#  22]+0.058*[# 217]+
          +0.057*[#  35]+0.055*[#  48]+0.044*[# 165]+0.044*[# 178]+0.044*[#   9]+
          +0.042*[# 191]+0.042*[# 204]+0.038*[# 100]+0.038*[#  87]+0.036*[#  61]+
          +0.036*[#  74]+0.011*[# 136]+0.010*[# 123]+0.009*[#  41]+0.009*[# 110]+
          +0.009*[# 223]+0.009*[# 149]+0.008*[# 162]+0.008*[# 175]+0.008*[# 249]+
          +0.008*[# 188]+0.008*[# 201]+0.007*[# 210]+0.006*[#  58]+0.006*[#  71]+
          +0.006*[#  28]+0.006*[#  84]+0.006*[#  97]+0.005*[# 227]+0.005*[# 236]+
          +0.005*[# 240]+0.005*[# 253]+0.004*[#  15]+0.004*[#   2]+0.004*[#  19]+
          +0.004*[#  32]+0.004*[# 214]+0.003*[#   6]+0.003*[#  45]+0.003*[# 263]+
          +0.002*[# 261]+0.002*[#  54]+0.002*[#  67]+0.002*[# 184]+0.002*[# 197]+
          +0.002*[#  80]+0.002*[#  93]+0.001*[# 158]+0.001*[# 171]+
    |psi|^2 = 0.996
     e =     1.51903 eV
     psi = 0.159*[#  12]+0.094*[# 259]+0.056*[#  51]+0.041*[#  15]+0.041*[#  28]+
          +0.035*[# 139]+0.034*[# 126]+0.026*[# 220]+0.026*[# 236]+0.024*[# 223]+
          +0.023*[#  60]+0.023*[#  73]+0.023*[#  86]+0.023*[#  99]+0.020*[#  38]+
          +0.016*[# 164]+0.016*[# 177]+0.016*[# 190]+0.016*[# 203]+0.012*[# 233]+
          +0.011*[#  59]+0.011*[#  72]+0.011*[#  85]+0.011*[#  98]+0.010*[#  63]+
          +0.010*[#  76]+0.010*[#  89]+0.010*[# 102]+0.009*[# 116]+0.008*[# 163]+
          +0.008*[# 176]+0.008*[# 189]+0.008*[# 202]+0.006*[# 119]+0.006*[# 132]+
          +0.005*[#  64]+0.005*[#  77]+0.006*[#  90]+0.006*[# 103]+0.005*[#  62]+
          +0.005*[#  75]+0.005*[#  88]+0.005*[# 101]+0.005*[# 155]+0.004*[# 167]+
          +0.004*[# 193]+0.004*[# 180]+0.004*[# 206]+0.004*[# 118]+0.004*[# 131]+
          +0.003*[# 194]+0.003*[# 207]+0.003*[#  32]+0.003*[# 168]+0.003*[# 181]+
          +0.003*[#  19]+0.002*[#  14]+0.002*[#  27]+0.002*[# 263]+0.002*[# 166]+
          +0.002*[# 179]+0.002*[# 240]+0.002*[# 192]+0.002*[# 205]+0.002*[# 227]+
          +0.002*[# 235]+0.002*[# 222]+0.002*[#  41]+0.001*[#   2]+0.001*[# 113]+
          +0.001*[# 230]+0.001*[#  57]+0.001*[#  70]+0.001*[#  83]+0.001*[#  96]+
          +0.001*[# 152]+
    |psi|^2 = 0.998
     e =     1.56256 eV
     psi = 0.187*[#  25]+0.186*[#  38]+0.077*[#   2]+0.058*[#  41]+0.030*[#  59]+
          +0.030*[#  72]+0.030*[#  85]+0.030*[#  98]+0.025*[# 101]+0.025*[#  62]+
          +0.025*[#  75]+0.025*[#  88]+0.024*[# 113]+0.014*[#  60]+0.014*[#  73]+
          +0.014*[#  86]+0.014*[#  99]+0.011*[# 152]+0.011*[# 263]+0.010*[#  63]+
          +0.010*[#  76]+0.010*[#  89]+0.010*[# 102]+0.008*[#  12]+0.008*[# 262]+
          +0.008*[#  51]+0.006*[# 129]+0.006*[# 142]+0.004*[# 106]+0.004*[# 256]+
          +0.004*[#  48]+0.004*[#   1]+0.004*[# 145]+0.003*[#  28]+0.003*[#  40]+
          +0.003*[#   6]+0.002*[#  22]+0.002*[#  15]+0.002*[#  45]+0.002*[# 214]+
          +0.002*[# 105]+0.002*[# 110]+0.002*[# 166]+0.002*[#   9]+0.002*[# 144]+
          +0.002*[# 179]+0.002*[# 192]+0.002*[# 205]+0.002*[# 149]+0.002*[#  65]+
          +0.002*[#  78]+0.001*[#  91]+0.001*[# 104]+0.001*[#  56]+0.001*[#  69]+
          +0.001*[#  82]+0.001*[#  95]+
    |psi|^2 = 0.998
     e =     1.58231 eV
     psi = 0.209*[#  51]+0.145*[# 259]+0.064*[#  25]+0.044*[# 233]+0.031*[# 246]+
          +0.028*[#  64]+0.028*[#  77]+0.028*[#  90]+0.028*[# 103]+0.027*[# 207]+
          +0.027*[# 194]+0.025*[# 181]+0.025*[# 168]+0.022*[#  15]+0.022*[#  28]+
          +0.021*[#  38]+0.012*[#  63]+0.012*[#  76]+0.012*[#  89]+0.012*[# 102]+
          +0.010*[# 223]+0.010*[# 236]+0.007*[#  60]+0.007*[#  73]+0.007*[#  86]+
          +0.007*[#  99]+0.007*[# 193]+0.007*[# 206]+0.007*[# 167]+0.007*[# 180]+
          +0.006*[# 243]+0.006*[#  62]+0.006*[#  75]+0.006*[#  88]+0.006*[# 101]+
          +0.005*[#  35]+0.005*[# 230]+0.004*[# 166]+0.004*[# 179]+0.004*[# 192]+
          +0.004*[# 205]+0.004*[#  12]+0.004*[#  22]+0.003*[#  59]+0.003*[#  72]+
          +0.003*[#  85]+0.003*[#  98]+0.002*[# 123]+0.002*[# 164]+0.002*[# 177]+
          +0.002*[# 190]+0.002*[# 203]+0.001*[# 163]+0.001*[# 176]+0.001*[# 189]+
          +0.001*[# 202]+0.001*[#   2]+0.001*[# 136]+
    |psi|^2 = 0.997
     e =     1.64297 eV
     psi = 0.220*[# 220]+0.099*[#  12]+0.090*[# 246]+0.044*[#  38]+0.035*[# 236]+
          +0.029*[# 223]+0.023*[# 181]+0.023*[# 207]+0.022*[# 168]+0.023*[# 194]+
          +0.021*[# 167]+0.021*[# 180]+0.020*[# 193]+0.020*[# 206]+0.017*[# 259]+
          +0.016*[#  64]+0.016*[#  77]+0.015*[#  90]+0.015*[# 103]+0.014*[# 164]+
          +0.014*[# 177]+0.014*[# 190]+0.014*[# 203]+0.013*[#  25]+0.008*[#  89]+
          +0.008*[# 102]+0.008*[#  63]+0.008*[#  76]+0.007*[# 243]+0.007*[#  22]+
          +0.007*[#  28]+0.006*[#  15]+0.005*[#  35]+0.005*[# 166]+0.005*[# 179]+
          +0.004*[# 192]+0.004*[# 205]+0.004*[# 233]+0.004*[# 217]+0.004*[# 210]+
          +0.004*[# 249]+0.004*[# 230]+0.003*[# 139]+0.003*[# 163]+0.003*[# 176]+
          +0.003*[# 189]+0.003*[# 202]+0.002*[# 126]+0.002*[#  62]+0.002*[#  75]+
          +0.002*[#  88]+0.002*[# 101]+0.002*[# 116]+0.002*[# 136]+0.002*[# 235]+
          +0.001*[#   9]+0.001*[# 222]+0.001*[# 123]+0.001*[# 263]+
    |psi|^2 = 0.997
     e =     1.72084 eV
     psi = 0.150*[# 233]+0.103*[# 246]+0.098*[# 217]+0.053*[# 263]+0.046*[# 262]+
          +0.039*[# 249]+0.025*[#   9]+0.020*[#  65]+0.020*[#  78]+0.020*[# 205]+
          +0.020*[# 192]+0.020*[#  91]+0.019*[# 104]+0.019*[# 179]+0.019*[# 166]+
          +0.017*[# 210]+0.015*[# 113]+0.015*[# 163]+0.015*[# 176]+0.015*[# 189]+
          +0.015*[# 202]+0.015*[# 220]+0.012*[#  35]+0.011*[# 169]+0.011*[# 182]+
          +0.010*[# 223]+0.010*[# 195]+0.010*[# 208]+0.008*[# 214]+0.008*[#  25]+
          +0.006*[# 193]+0.006*[# 206]+0.006*[# 167]+0.006*[# 180]+0.005*[# 190]+
          +0.005*[# 203]+0.005*[# 164]+0.005*[# 177]+0.004*[#  41]+0.005*[# 123]+
          +0.004*[# 129]+0.004*[# 149]+0.004*[#  22]+0.004*[# 259]+0.003*[#  12]+
          +0.003*[#  62]+0.003*[#  75]+0.003*[#  88]+0.003*[# 101]+0.003*[# 136]+
          +0.003*[# 243]+0.002*[# 142]+0.002*[# 253]+0.002*[# 106]+0.002*[#  15]+
          +0.002*[# 145]+0.002*[# 227]+0.001*[#   6]+0.001*[# 152]+0.001*[# 209]+
          +0.001*[# 248]+0.001*[# 126]+0.001*[# 144]+0.001*[# 168]+0.001*[# 181]+
          +0.001*[# 194]+0.001*[# 207]+
    |psi|^2 = 0.998
     e =     1.88713 eV
     psi = 0.107*[# 260]+0.107*[#  13]+0.106*[#  26]+0.106*[#  39]+0.105*[# 247]+
          +0.104*[#  52]+0.100*[# 234]+0.098*[# 221]+0.013*[# 165]+0.012*[# 178]+
          +0.011*[#  87]+0.011*[# 100]+0.012*[# 191]+0.012*[# 204]+0.011*[#  61]+
          +0.011*[#  74]+0.005*[# 158]+0.005*[# 171]+0.005*[#  58]+0.005*[#  71]+
          +0.005*[# 184]+0.005*[# 197]+0.004*[#  54]+0.004*[#  67]+0.004*[#  80]+
          +0.004*[#  84]+0.004*[#  93]+0.005*[#  97]+0.004*[# 162]+0.004*[# 175]+
          +0.004*[# 188]+0.004*[# 201]+
    |psi|^2 = 0.999
     e =     1.90556 eV
     psi = 0.077*[# 208]+0.076*[# 195]+0.071*[# 182]+0.070*[# 169]+0.055*[#  91]+
          +0.055*[# 104]+0.053*[#  65]+0.053*[#  78]+0.046*[# 263]+0.043*[# 262]+
          +0.042*[# 256]+0.037*[# 230]+0.037*[#  48]+0.027*[# 243]+0.021*[# 233]+
          +0.020*[#  22]+0.019*[# 214]+0.019*[# 246]+0.016*[# 149]+0.016*[#  35]+
          +0.013*[#   9]+0.012*[# 110]+0.009*[# 123]+0.009*[# 136]+0.009*[# 210]+
          +0.006*[# 236]+0.005*[#  15]+0.005*[#  28]+0.005*[# 113]+0.005*[#  41]+
          +0.003*[# 223]+0.003*[#  45]+0.003*[# 129]+0.002*[# 205]+0.002*[# 179]+
          +0.002*[# 192]+0.002*[# 142]+0.002*[#   2]+0.002*[# 166]+0.002*[# 217]+
          +0.002*[# 163]+0.002*[# 176]+0.002*[# 189]+0.002*[# 202]+0.002*[# 253]+
          +0.001*[# 240]+0.001*[#  19]+0.001*[#   6]+0.001*[#  32]+0.001*[# 106]+
    |psi|^2 = 0.999
     e =     2.13818 eV
     psi = 0.097*[#  23]+0.092*[#  10]+0.091*[#  49]+0.088*[#  36]+0.068*[#  89]+
          +0.068*[#  63]+0.068*[# 102]+0.068*[#  76]+0.047*[# 244]+0.046*[# 257]+
          +0.038*[# 231]+0.038*[# 218]+0.036*[# 193]+0.036*[# 206]+0.036*[# 167]+
          +0.036*[# 180]+0.003*[# 124]+0.003*[# 150]+0.003*[#   7]+0.003*[#  33]+
          +0.003*[#  20]+0.002*[#  46]+0.003*[#  60]+0.003*[#  73]+0.002*[#  86]+
          +0.002*[#  99]+0.002*[# 241]+0.002*[# 111]+0.002*[# 137]+0.002*[# 215]+
          +0.001*[# 190]+0.001*[# 203]+
    |psi|^2 = 0.999
     e =     2.13988 eV
     psi = 0.100*[#  37]+0.097*[#  11]+0.093*[#  50]+0.092*[#  24]+0.071*[#  62]+
          +0.071*[#  75]+0.070*[#  88]+0.070*[# 101]+0.045*[# 232]+0.041*[# 258]+
          +0.035*[# 219]+0.034*[# 245]+0.033*[# 166]+0.033*[# 179]+0.033*[# 192]+
          +0.033*[# 205]+0.003*[# 138]+0.003*[#   8]+0.003*[# 151]+0.003*[#  21]+
          +0.003*[#  34]+0.003*[#  47]+0.003*[#  59]+0.003*[#  72]+0.003*[#  85]+
          +0.003*[#  98]+0.002*[# 112]+0.002*[# 125]+0.002*[# 229]+0.001*[# 216]+
          +0.001*[# 255]+
    |psi|^2 = 0.999
     e =     2.21735 eV
     psi = 0.088*[# 257]+0.087*[# 244]+0.071*[# 231]+0.070*[# 218]+0.069*[# 193]+
          +0.069*[# 206]+0.068*[# 167]+0.068*[# 180]+0.045*[#  36]+0.041*[#  49]+
          +0.038*[#  10]+0.035*[#  23]+0.034*[#  76]+0.034*[#  63]+0.033*[# 102]+
          +0.033*[#  89]+0.026*[# 127]+0.025*[# 114]+0.016*[# 153]+0.015*[# 140]+
          +0.004*[# 241]+0.003*[# 215]+0.002*[# 190]+0.002*[# 203]+0.002*[# 164]+
          +0.002*[# 177]+0.001*[# 254]+0.001*[#  20]+0.001*[#  46]+0.001*[# 228]+
    |psi|^2 = 0.998
     e =     2.22096 eV
     psi = 0.096*[# 232]+0.090*[# 258]+0.073*[# 179]+0.073*[# 166]+0.073*[# 219]+
          +0.072*[# 192]+0.072*[# 205]+0.072*[# 245]+0.041*[#  24]+0.038*[#  50]+
          +0.033*[#  11]+0.031*[#  88]+0.031*[# 101]+0.031*[#  37]+0.030*[#  62]+
          +0.030*[#  75]+0.027*[# 141]+0.026*[# 115]+0.016*[# 154]+0.014*[# 128]+
          +0.003*[# 229]+0.002*[# 216]+0.002*[# 255]+0.002*[# 163]+0.002*[# 176]+
          +0.002*[# 189]+0.002*[# 202]+0.002*[# 242]+
    |psi|^2 = 0.998
     e =     2.34371 eV
     psi = 0.093*[# 156]+0.089*[# 260]+0.082*[#  52]+0.080*[# 247]+0.075*[#  39]+
          +0.075*[# 143]+0.074*[#  26]+0.073*[# 234]+0.072*[# 130]+0.068*[# 221]+
          +0.066*[#  13]+0.058*[# 117]+0.011*[# 188]+0.011*[# 201]+0.010*[#  84]+
          +0.010*[#  97]+0.010*[# 162]+0.010*[# 175]+0.010*[#  58]+0.010*[#  71]+
    |psi|^2 = 0.999
     e =     2.42692 eV
     psi = 0.189*[# 154]+0.189*[# 128]+0.066*[# 258]+0.063*[#  50]+0.062*[#  24]+
          +0.061*[# 232]+0.038*[# 208]+0.038*[# 169]+0.035*[# 104]+0.035*[#  65]+
          +0.032*[# 195]+0.031*[# 182]+0.029*[#  91]+0.029*[#  78]+0.007*[# 192]+
          +0.007*[# 205]+0.007*[# 166]+0.007*[# 179]+0.004*[# 163]+0.004*[# 176]+
          +0.004*[# 189]+0.004*[# 202]+0.004*[#  59]+0.004*[#  62]+0.004*[#  72]+
          +0.004*[#  75]+0.004*[#  85]+0.004*[#  88]+0.004*[#  98]+0.004*[# 101]+
          +0.004*[# 141]+0.004*[# 115]+0.003*[# 245]+0.002*[# 219]+0.001*[#  11]+
          +0.001*[#  37]+
    |psi|^2 = 0.999
     e =     2.42864 eV
     psi = 0.184*[# 140]+0.184*[# 153]+0.067*[# 257]+0.063*[#  36]+0.063*[#  49]+
          +0.060*[# 244]+0.040*[# 182]+0.040*[# 195]+0.038*[#  78]+0.037*[#  91]+
          +0.033*[# 169]+0.033*[# 208]+0.032*[#  65]+0.031*[# 104]+0.006*[# 167]+
          +0.006*[# 193]+0.006*[# 180]+0.006*[# 206]+0.004*[#  60]+0.004*[#  76]+
          +0.004*[# 164]+0.004*[# 190]+0.004*[# 203]+0.004*[#  63]+0.004*[#  73]+
          +0.004*[# 177]+0.004*[#  86]+0.004*[#  89]+0.004*[#  99]+0.004*[# 102]+
          +0.004*[# 231]+0.003*[# 218]+0.002*[#  10]+0.002*[#  23]+0.002*[# 127]+
          +0.002*[# 114]+
    |psi|^2 = 0.999
     e =     2.47505 eV
     psi = 0.195*[# 114]+0.189*[# 127]+0.086*[# 231]+0.080*[#  10]+0.065*[#  23]+
          +0.053*[# 218]+0.026*[#  78]+0.026*[#  91]+0.024*[#  65]+0.023*[# 104]+
          +0.023*[# 140]+0.019*[# 182]+0.018*[# 195]+0.017*[# 153]+0.017*[# 169]+
          +0.016*[# 208]+0.007*[#  89]+0.007*[# 190]+0.007*[# 203]+0.007*[#  63]+
          +0.007*[# 102]+0.007*[#  86]+0.007*[#  99]+0.007*[#  76]+0.007*[#  60]+
          +0.007*[#  73]+0.007*[# 164]+0.007*[# 177]+0.004*[# 257]+0.003*[# 206]+
          +0.003*[# 180]+0.003*[# 193]+0.003*[# 167]+0.002*[# 244]+0.001*[# 215]+
          +0.001*[# 191]+0.001*[# 204]+
    |psi|^2 = 0.999
     e =     2.48022 eV
     psi = 0.192*[# 115]+0.186*[# 141]+0.087*[# 245]+0.082*[#  11]+0.069*[#  37]+
          +0.054*[# 219]+0.030*[# 104]+0.030*[#  65]+0.027*[#  91]+0.026*[#  78]+
          +0.020*[# 169]+0.020*[# 208]+0.018*[# 182]+0.018*[# 128]+0.018*[# 195]+
          +0.013*[# 154]+0.008*[#  62]+0.008*[#  75]+0.007*[# 163]+0.007*[# 176]+
          +0.007*[# 189]+0.007*[# 202]+0.007*[#  59]+0.007*[#  72]+0.006*[#  85]+
          +0.007*[#  98]+0.006*[#  88]+0.006*[# 101]+0.003*[# 258]+0.003*[# 192]+
          +0.003*[# 205]+0.003*[# 232]+0.001*[# 166]+0.001*[# 179]+0.001*[# 216]+
    |psi|^2 = 0.999
     e =     2.51194 eV
     psi = 0.088*[# 129]+0.088*[# 155]+0.085*[# 142]+0.084*[# 116]+0.084*[#  38]+
          +0.082*[#  51]+0.082*[#  12]+0.081*[#  25]+0.078*[# 220]+0.078*[# 233]+
          +0.077*[# 246]+0.077*[# 259]+0.002*[#  64]+0.002*[#  77]+0.002*[#  90]+
          +0.002*[# 103]+
    |psi|^2 = 0.997
     e =     2.53995 eV
     psi = 0.140*[# 130]+0.137*[# 143]+0.075*[# 234]+0.073*[# 247]+0.071*[#  26]+
          +0.070*[#  39]+0.030*[# 180]+0.030*[# 167]+0.029*[# 193]+0.029*[# 206]+
          +0.028*[#  76]+0.028*[# 102]+0.028*[#  63]+0.028*[#  89]+0.026*[#  88]+
          +0.026*[# 101]+0.026*[# 192]+0.026*[# 205]+0.025*[# 166]+0.025*[# 179]+
          +0.024*[#  62]+0.024*[#  75]+
    |psi|^2 = 0.999
     e =     2.56166 eV
     psi = 0.157*[# 117]+0.125*[# 156]+0.087*[#  13]+0.076*[# 221]+0.071*[#  52]+
          +0.051*[# 260]+0.031*[#  88]+0.031*[# 101]+0.030*[#  62]+0.030*[#  75]+
          +0.027*[#  76]+0.027*[# 102]+0.027*[#  89]+0.027*[# 192]+0.026*[#  63]+
          +0.026*[# 205]+0.026*[# 166]+0.026*[# 179]+0.024*[# 167]+0.024*[# 180]+
          +0.023*[# 193]+0.023*[# 206]+0.002*[# 234]+0.001*[# 247]+
    |psi|^2 = 0.999
     e =     2.60409 eV
     psi = 0.153*[# 126]+0.153*[# 139]+0.124*[#  35]+0.124*[#  22]+0.115*[# 230]+
          +0.113*[# 243]+0.040*[# 155]+0.038*[# 116]+0.032*[#  12]+0.031*[#  51]+
          +0.029*[# 220]+0.027*[# 259]+
    |psi|^2 = 0.997
     e =     2.64329 eV
     psi = 0.180*[#  48]+0.173*[#   9]+0.159*[# 113]+0.149*[# 152]+0.083*[# 256]+
          +0.039*[# 217]+0.035*[# 142]+0.032*[# 129]+0.030*[#  25]+0.027*[#  38]+
          +0.026*[# 233]+0.023*[# 246]+0.005*[# 214]+0.005*[# 262]+0.004*[# 263]+
          +0.001*[#  45]+0.001*[#   6]+
    |psi|^2 = 0.997
     e =     2.68961 eV
     psi = 0.079*[# 204]+0.077*[# 165]+0.074*[#  61]+0.073*[# 100]+0.069*[# 191]+
          +0.067*[# 178]+0.065*[#  74]+0.064*[#  87]+0.050*[# 232]+0.046*[#  37]+
          +0.032*[#  24]+0.027*[# 258]+0.021*[#  50]+0.021*[# 219]+0.020*[# 112]+
          +0.020*[# 245]+0.019*[# 125]+0.017*[# 151]+0.016*[# 138]+0.012*[#  11]+
          +0.010*[# 242]+0.010*[# 216]+0.010*[# 255]+0.009*[#   8]+0.009*[#  47]+
[...]
          +0.013*[# 261]+0.012*[# 230]+0.012*[#  36]+0.011*[# 204]+0.011*[# 191]+
          +0.011*[# 245]+0.010*[# 140]+0.010*[# 221]+0.009*[#  24]+0.008*[# 127]+
          +0.008*[# 195]+0.007*[# 214]+0.007*[#  49]+0.007*[# 166]+0.007*[# 208]+
          +0.007*[# 263]+0.007*[# 217]+0.007*[# 259]+0.007*[# 192]+0.006*[#  91]+
          +0.006*[# 104]+0.006*[# 179]+0.005*[# 205]+0.005*[# 231]+0.005*[# 264]+
          +0.005*[#  11]+0.005*[#  12]+0.005*[#  32]+0.005*[# 126]+0.005*[#  75]+
          +0.005*[# 254]+0.004*[#  88]+0.004*[# 194]+0.004*[#  45]+0.004*[# 154]+
          +0.004*[# 101]+0.004*[# 218]+0.003*[# 169]+0.003*[#  62]+0.003*[#  87]+
          +0.003*[# 207]+0.003*[# 182]+0.002*[# 103]+0.003*[# 241]+0.002*[#  25]+
          +0.002*[#  90]+0.002*[#  20]+0.002*[# 100]+0.002*[#  38]+0.002*[#  51]+
          +0.002*[# 244]+0.002*[# 233]+0.001*[#  21]+0.001*[#   6]+0.001*[#  10]+
          +0.001*[#  13]+0.001*[#  37]+0.001*[#  64]+0.001*[# 216]+0.001*[# 232]+
          +0.001*[#   7]+0.001*[#  77]+
    |psi|^2 = 0.982
     e =     7.93702 eV
     psi = 0.085*[#  89]+0.085*[# 102]+0.085*[# 141]+0.067*[# 154]+0.047*[#  26]+
          +0.042*[#  13]+0.026*[# 191]+0.025*[# 204]+0.024*[#  63]+0.023*[#  76]+
          +0.017*[# 127]+0.016*[# 165]+0.015*[# 178]+0.015*[# 179]+0.015*[# 234]+
          +0.015*[# 167]+0.015*[#  23]+0.015*[# 166]+0.015*[# 180]+0.014*[# 100]+
          +0.014*[#  87]+0.013*[#  37]+0.013*[#  61]+0.013*[#  74]+0.010*[# 117]+
          +0.010*[# 182]+0.010*[# 169]+0.010*[#  10]+0.010*[# 130]+0.009*[# 206]+
          +0.009*[# 193]+0.008*[#  51]+0.008*[# 221]+0.007*[#  50]+0.007*[# 245]+
          +0.007*[# 231]+0.006*[# 143]+0.006*[#  65]+0.006*[#  78]+0.006*[# 208]+
          +0.006*[# 261]+0.005*[#  52]+0.005*[# 195]+0.005*[# 253]+0.006*[# 259]+
          +0.006*[# 265]+0.005*[# 115]+0.005*[# 266]+0.005*[# 217]+0.004*[#  91]+
          +0.004*[# 104]+0.004*[# 156]+0.004*[# 207]+0.004*[# 227]+0.004*[# 240]+
          +0.003*[#  49]+0.003*[#  25]+0.003*[#  62]+0.003*[#  75]+0.003*[# 194]+
          +0.003*[# 205]+0.003*[# 228]+0.003*[# 256]+0.003*[# 192]+0.003*[#  39]+
          +0.002*[# 101]+0.002*[#  38]+0.002*[# 215]+0.002*[#  88]+0.002*[# 230]+
          +0.001*[#  11]+0.001*[# 126]+0.002*[# 181]+0.001*[#  77]+0.001*[# 153]+
          +0.001*[# 219]+0.002*[# 247]+0.001*[#  64]+0.001*[# 114]+0.001*[# 168]+
          +0.001*[# 243]+0.001*[# 136]+0.001*[# 149]+0.001*[# 152]+0.001*[# 233]+
    |psi|^2 = 0.993
     e =     7.95429 eV
     psi = 0.093*[# 193]+0.090*[# 206]+0.074*[# 247]+0.061*[# 260]+0.051*[# 167]+
          +0.050*[# 143]+0.050*[# 156]+0.050*[# 180]+0.048*[# 128]+0.037*[# 115]+
          +0.027*[# 257]+0.025*[#  87]+0.025*[# 100]+0.018*[#   6]+0.016*[#  19]+
          +0.014*[#  61]+0.014*[#  74]+0.012*[# 244]+0.012*[# 232]+0.012*[#  75]+
          +0.011*[#  62]+0.009*[# 191]+0.009*[# 204]+0.008*[# 220]+0.008*[# 217]+
          +0.007*[# 101]+0.007*[# 219]+0.007*[#  33]+0.006*[#  88]+0.006*[# 165]+
          +0.006*[# 227]+0.006*[# 178]+0.005*[#  65]+0.005*[#  78]+0.005*[# 153]+
          +0.005*[# 103]+0.005*[#  46]+0.005*[#  90]+0.004*[# 140]+0.004*[# 261]+
          +0.004*[# 266]+0.004*[# 265]+0.003*[# 233]+0.003*[# 182]+0.003*[#  64]+
          +0.003*[#  77]+0.003*[#  91]+0.003*[# 104]+0.003*[# 169]+0.003*[# 263]+
          +0.002*[#  24]+0.002*[# 208]+0.002*[#   9]+0.002*[#  22]+0.002*[# 126]+
          +0.002*[# 141]+0.002*[# 195]+0.002*[# 234]+0.002*[# 214]+0.001*[#  11]+
          +0.001*[#  21]+0.001*[#   2]+0.001*[# 216]+0.001*[# 223]+0.001*[# 123]+
          +0.001*[# 229]+0.001*[#  12]+0.001*[# 205]+0.001*[# 230]+
    |psi|^2 = 0.992
     e =     8.07258 eV
     psi = 0.098*[# 264]+0.071*[# 265]+0.069*[# 266]+0.046*[# 166]+0.046*[# 179]+
          +0.039*[# 115]+0.038*[# 219]+0.028*[#  63]+0.027*[#  76]+0.022*[#  62]+
          +0.022*[#  52]+0.022*[# 154]+0.021*[#  75]+0.020*[# 245]+0.017*[#  13]+
          +0.016*[#  49]+0.014*[#  25]+0.013*[# 247]+0.011*[# 143]+0.011*[# 253]+
          +0.010*[# 221]+0.010*[# 234]+0.010*[# 232]+0.009*[# 130]+0.009*[# 262]+
          +0.008*[#  38]+0.008*[# 256]+0.007*[#  10]+0.007*[# 104]+0.007*[# 192]+
          +0.007*[#  91]+0.006*[# 156]+0.006*[# 205]+0.006*[# 217]+0.006*[# 195]+
          +0.006*[# 204]+0.005*[# 208]+0.005*[# 231]+0.005*[# 117]+0.005*[# 191]+
          +0.005*[# 218]+0.005*[# 258]+0.004*[# 152]+0.004*[#   6]+0.004*[# 113]+
          +0.004*[#  12]+0.004*[#   2]+0.004*[# 129]+0.004*[# 180]+0.003*[#  51]+
          +0.003*[# 233]+0.003*[# 153]+0.003*[#  33]+0.003*[#  45]+0.003*[#  19]+
          +0.003*[#  41]+0.003*[# 167]+0.002*[#  20]+0.002*[#  24]+0.002*[#  65]+
          +0.002*[# 215]+0.002*[# 182]+0.002*[# 263]+0.002*[#  39]+0.002*[#  78]+
          +0.002*[# 169]+0.002*[# 246]+0.002*[#  86]+0.002*[#  11]+0.002*[#  34]+
          +0.002*[#  99]+0.002*[# 260]+0.002*[# 261]+0.001*[#  37]+0.001*[# 102]+
          +0.001*[# 103]+0.002*[# 142]+0.002*[# 162]+0.002*[# 220]+0.001*[# 175]+
          +0.001*[# 236]+0.001*[#  58]+0.001*[#  71]+0.001*[#  89]+0.001*[#  90]+
          +0.001*[#  21]+0.001*[#  50]+0.001*[#  64]+0.001*[# 210]+0.001*[# 249]+
          +0.001*[# 227]+0.001*[# 259]+
    |psi|^2 = 0.943
     e =     8.37567 eV
     psi = 0.056*[# 205]+0.054*[# 192]+0.054*[#  88]+0.053*[# 101]+0.047*[# 128]+
          +0.031*[# 140]+0.023*[#  39]+0.021*[# 141]+0.020*[# 153]+0.020*[# 114]+
          +0.020*[# 127]+0.019*[#  91]+0.018*[# 260]+0.018*[# 195]+0.018*[#  76]+
          +0.017*[# 167]+0.017*[# 104]+0.016*[# 180]+0.016*[#  63]+0.016*[# 208]+
          +0.015*[# 115]+0.014*[# 154]+0.014*[# 247]+0.011*[#   8]+0.011*[#  19]+
          +0.012*[# 234]+0.011*[#  26]+0.011*[# 216]+0.011*[# 219]+0.009*[#  13]+
          +0.009*[# 229]+0.009*[#  52]+0.008*[#  46]+0.008*[#  15]+0.007*[#  21]+
          +0.007*[#  47]+0.006*[#  34]+0.006*[# 221]+0.006*[# 210]+0.006*[#  12]+
          +0.006*[# 242]+0.006*[#  11]+0.005*[# 181]+0.005*[# 168]+0.005*[# 227]+
          +0.005*[# 255]+0.005*[# 266]+0.005*[# 241]+0.005*[#  77]+0.005*[#  64]+
          +0.004*[#  60]+0.004*[#  73]+0.004*[# 110]+0.004*[# 164]+0.004*[# 177]+
          +0.004*[#  25]+0.004*[#  58]+0.004*[# 249]+0.004*[#  61]+0.004*[# 265]+
          +0.004*[# 264]+0.004*[#  28]+0.004*[#  71]+0.004*[# 175]+0.004*[# 220]+
          +0.004*[# 262]+0.004*[# 228]+0.004*[# 236]+0.003*[#   7]+0.003*[# 162]+
          +0.003*[# 165]+0.003*[#  20]+0.003*[#  41]+0.003*[# 182]+0.003*[# 246]+
          +0.003*[# 259]+0.003*[#   2]+0.003*[#  36]+0.003*[#  74]+0.003*[#  33]+
          +0.003*[#  51]+0.003*[# 178]+0.003*[# 215]+0.003*[# 254]+0.003*[#  98]+
          +0.003*[# 202]+0.003*[# 223]+0.003*[# 230]+0.003*[# 244]+0.003*[#  85]+
          +0.003*[# 169]+0.003*[# 189]+0.002*[#  38]+0.002*[#  78]+0.002*[# 233]+
          +0.002*[#  32]+0.002*[# 253]+0.002*[#  65]+0.002*[# 166]+0.002*[# 217]+
          +0.002*[# 149]+0.002*[# 179]+0.001*[#  89]+0.001*[# 136]+0.001*[#  37]+
          +0.001*[#  50]+0.001*[# 258]+0.001*[#  45]+0.001*[# 100]+0.001*[# 156]+
    |psi|^2 = 0.991
     e =     8.44406 eV
     psi = 0.035*[#  75]+0.034*[#  62]+0.034*[# 227]+0.033*[# 128]+0.029*[# 166]+
          +0.028*[# 154]+0.027*[# 179]+0.025*[# 182]+0.025*[# 127]+0.024*[# 114]+
          +0.021*[# 169]+0.020*[#  19]+0.020*[# 141]+0.020*[# 266]+0.019*[# 140]+
          +0.018*[#  78]+0.018*[#  89]+0.015*[#  65]+0.016*[# 102]+0.015*[# 265]+
          +0.015*[#  13]+0.014*[#  39]+0.012*[#  26]+0.012*[# 234]+0.011*[# 206]+
          +0.011*[# 193]+0.011*[# 262]+0.010*[# 264]+0.010*[# 230]+0.009*[#  34]+
          +0.009*[# 221]+0.008*[# 255]+0.008*[#  47]+0.008*[# 263]+0.008*[# 214]+
          +0.008*[# 244]+0.007*[#   6]+0.007*[# 242]+0.007*[# 208]+0.006*[#   8]+
          +0.006*[# 100]+0.006*[# 204]+0.006*[#  15]+0.006*[# 104]+0.006*[# 153]+
          +0.006*[# 191]+0.005*[#  46]+0.006*[#  87]+0.005*[#  11]+0.005*[#  41]+
          +0.005*[#  49]+0.005*[# 195]+0.005*[#  20]+0.005*[# 236]+0.005*[#  36]+
          +0.005*[# 249]+0.005*[# 210]+0.005*[# 110]+0.005*[# 218]+0.005*[# 260]+
          +0.004*[#  91]+0.004*[# 190]+0.005*[# 203]+0.004*[# 215]+0.004*[#  28]+
          +0.004*[#   7]+0.004*[#  97]+0.004*[# 259]+0.004*[# 194]+0.004*[#  45]+
          +0.004*[# 207]+0.004*[# 216]+0.004*[# 228]+0.004*[#  84]+0.004*[# 101]+
          +0.004*[# 192]+0.003*[#  38]+0.003*[# 217]+0.003*[#  88]+0.003*[#  90]+
          +0.003*[# 220]+0.003*[# 232]+0.003*[# 246]+0.003*[#  63]+0.003*[#  74]+
          +0.003*[# 188]+0.003*[# 261]+0.003*[#  51]+0.003*[# 103]+0.003*[# 247]+
          +0.003*[# 136]+0.003*[# 201]+0.003*[# 205]+0.003*[# 229]+0.003*[# 163]+
          +0.003*[# 254]+0.003*[#  61]+0.003*[# 143]+0.003*[# 257]+0.002*[#  37]+
          +0.002*[#  99]+0.002*[# 176]+0.002*[#  86]+0.002*[# 241]+0.002*[# 178]+
          +0.002*[# 126]+0.002*[# 156]+0.002*[#  59]+0.002*[#  76]+0.002*[# 165]+
          +0.002*[# 240]+0.002*[#  12]+0.002*[#  72]+0.002*[#  21]+0.002*[#  50]+
          +0.002*[# 113]+0.002*[# 149]+0.001*[# 231]+0.001*[#  32]+0.001*[# 184]+
          +0.001*[# 223]+
    |psi|^2 = 0.968
     e =     8.59075 eV
     psi = 0.073*[# 265]+0.064*[# 266]+0.048*[# 264]+0.042*[# 169]+0.035*[# 182]+
          +0.033*[# 261]+0.032*[# 227]+0.026*[# 115]+0.025*[# 253]+0.023*[#  65]+
          +0.022*[# 153]+0.020*[#  32]+0.019*[#   6]+0.019*[#  78]+0.018*[# 141]+
          +0.017*[# 219]+0.016*[# 263]+0.014*[# 257]+0.013*[#  87]+0.013*[#  62]+
          +0.013*[#  52]+0.013*[#  75]+0.013*[# 102]+0.012*[# 100]+0.011*[#  45]+
          +0.011*[# 262]+0.011*[# 214]+0.010*[#  89]+0.010*[# 127]+0.010*[# 245]+
          +0.010*[# 231]+0.009*[# 191]+0.008*[# 204]+0.007*[#  21]+0.006*[# 230]+
          +0.006*[#   2]+0.006*[#  19]+0.005*[#  24]+0.006*[#  33]+0.006*[# 156]+
          +0.005*[#  10]+0.005*[#  26]+0.005*[# 218]+0.005*[# 140]+0.005*[# 123]+
          +0.004*[#  36]+0.004*[#  50]+0.004*[# 240]+0.003*[#  23]+0.003*[#  47]+
          +0.003*[# 149]+0.003*[# 154]+0.003*[# 229]+0.003*[# 232]+0.003*[# 256]+
          +0.003*[#   7]+0.003*[# 179]+0.003*[#  28]+0.003*[#  84]+0.003*[#  49]+
          +0.002*[# 126]+0.002*[# 197]+0.002*[# 260]+0.002*[#  97]+0.002*[#   8]+
          +0.002*[# 223]+0.002*[# 193]+0.002*[# 206]+0.002*[# 190]+0.002*[# 241]+
          +0.002*[# 249]+0.002*[#  39]+0.002*[# 184]+0.002*[#  37]+0.002*[#  88]+
          +0.002*[# 101]+0.002*[# 103]+0.002*[# 130]+0.002*[# 166]+0.002*[# 243]+
          +0.002*[#  90]+0.002*[# 203]+0.002*[# 233]+0.001*[#  72]+0.001*[#  93]+
          +0.001*[# 152]+0.002*[# 176]+0.001*[#  59]+0.001*[#  80]+0.001*[# 136]+
          +0.001*[# 207]+0.001*[# 247]+0.001*[# 259]+
    |psi|^2 = 0.920
     e =     8.86094 eV
     psi = 0.082*[#  45]+0.073*[#  32]+0.062*[# 240]+0.044*[# 253]+0.028*[#  61]+
          +0.028*[#  74]+0.028*[# 178]+0.027*[# 104]+0.027*[# 165]+0.027*[# 208]+
          +0.027*[#  91]+0.026*[# 195]+0.025*[# 264]+0.021*[# 154]+0.018*[# 265]+
          +0.017*[#   6]+0.016*[# 141]+0.015*[# 266]+0.014*[#  23]+0.013*[# 219]+
          +0.013*[# 227]+0.013*[# 258]+0.013*[# 218]+0.012*[#  37]+0.012*[#  10]+
          +0.011*[#  50]+0.010*[# 136]+0.010*[# 114]+0.009*[# 149]+0.008*[#  19]+
          +0.008*[# 263]+0.007*[# 231]+0.007*[# 153]+0.007*[# 214]+0.007*[# 257]+
          +0.007*[# 115]+0.007*[# 182]+0.007*[# 204]+0.006*[# 249]+0.006*[# 191]+
          +0.006*[#  78]+0.005*[#  87]+0.006*[# 100]+0.006*[# 169]+0.005*[# 215]+
          +0.005*[#  20]+0.005*[#  65]+0.005*[# 245]+0.004*[# 228]+0.004*[# 236]+
          +0.004*[#   7]+0.004*[#  36]+0.004*[# 127]+0.003*[# 158]+0.003*[#  24]+
          +0.003*[# 171]+0.003*[#  54]+0.003*[#  67]+0.003*[# 123]+0.003*[#  41]+
          +0.003*[#  48]+0.003*[# 234]+0.002*[#  21]+0.002*[#  35]+0.002*[#  52]+
          +0.002*[#  62]+0.002*[#  75]+0.002*[#  33]+0.002*[#  34]+0.002*[# 162]+
          +0.002*[# 175]+0.002*[# 189]+0.002*[#  89]+0.002*[# 202]+0.002*[# 102]+
          +0.002*[# 255]+0.002*[#  85]+0.002*[#   2]+0.002*[#  98]+0.002*[# 167]+
          +0.002*[# 180]+0.002*[# 210]+0.002*[# 241]+0.001*[#  28]+0.001*[#  64]+
          +0.001*[#  77]+0.001*[# 262]+0.001*[# 130]+0.001*[# 143]+0.001*[# 168]+
          +0.001*[# 181]+0.001*[#  13]+
    |psi|^2 = 0.979

Lowdin Charges: 

     Atom #   1: total charge =  15.8050, s =  2.3795, p =  6.8668, d =  6.5588, 
                 spin up      =   9.4608, s =  1.1971, p =  3.4375, d =  4.8262, 
                 spin down    =   6.3443, s =  1.1824, p =  3.4293, d =  1.7326, 
                 polarization =   3.1165, s =  0.0147, p =  0.0082, d =  3.0936, 
     Atom #   2: total charge =  15.8031, s =  2.3798, p =  6.8645, d =  6.5588, 
                 spin up      =   9.4601, s =  1.1973, p =  3.4347, d =  4.8282, 
                 spin down    =   6.3430, s =  1.1825, p =  3.4298, d =  1.7306, 
                 polarization =   3.1171, s =  0.0147, p =  0.0049, d =  3.0975, 
     Atom #   3: total charge =  15.8032, s =  2.3800, p =  6.8647, d =  6.5585, 
                 spin up      =   9.4607, s =  1.1975, p =  3.4350, d =  4.8282, 
                 spin down    =   6.3424, s =  1.1825, p =  3.4297, d =  1.7303, 
                 polarization =   3.1183, s =  0.0150, p =  0.0053, d =  3.0979, 
     Atom #   4: total charge =  15.8028, s =  2.3794, p =  6.8634, d =  6.5600, 
                 spin up      =   9.4581, s =  1.1967, p =  3.4333, d =  4.8281, 
                 spin down    =   6.3447, s =  1.1826, p =  3.4301, d =  1.7320, 
                 polarization =   3.1134, s =  0.0141, p =  0.0032, d =  3.0961, 
     Atom #   5: total charge =  16.1381, s =  2.3081, p =  7.1607, d =  6.6692, 
                 spin up      =   9.2044, s =  1.1409, p =  3.5193, d =  4.5443, 
                 spin down    =   6.9337, s =  1.1672, p =  3.6415, d =  2.1249, 
                 polarization =   2.2707, s = -0.0264, p = -0.1222, d =  2.4193, 
     Atom #   6: total charge =  16.1381, s =  2.3081, p =  7.1607, d =  6.6692, 
                 spin up      =   9.2046, s =  1.1409, p =  3.5192, d =  4.5445, 
                 spin down    =   6.9335, s =  1.1673, p =  3.6415, d =  2.1247, 
                 polarization =   2.2711, s = -0.0264, p = -0.1222, d =  2.4197, 
     Atom #   7: total charge =  16.1379, s =  2.3084, p =  7.1605, d =  6.6690, 
                 spin up      =   9.2089, s =  1.1411, p =  3.5190, d =  4.5488, 
                 spin down    =   6.9290, s =  1.1673, p =  3.6415, d =  2.1202, 
                 polarization =   2.2799, s = -0.0261, p = -0.1225, d =  2.4285, 
     Atom #   8: total charge =  16.1378, s =  2.3084, p =  7.1605, d =  6.6689, 
                 spin up      =   9.2092, s =  1.1411, p =  3.5190, d =  4.5491, 
                 spin down    =   6.9286, s =  1.1673, p =  3.6415, d =  2.1198, 
                 polarization =   2.2807, s = -0.0261, p = -0.1225, d =  2.4293, 
     Atom #   9: total charge =  16.0015, s =  2.2884, p =  7.0791, d =  6.6340, 
                 spin up      =   9.0968, s =  1.1348, p =  3.4829, d =  4.4791, 
                 spin down    =   6.9047, s =  1.1536, p =  3.5962, d =  2.1549, 
                 polarization =   2.1921, s = -0.0187, p = -0.1133, d =  2.3242, 
     Atom #  10: total charge =  16.0010, s =  2.2890, p =  7.0824, d =  6.6295, 
                 spin up      =   9.1180, s =  1.1351, p =  3.4831, d =  4.4998, 
                 spin down    =   6.8830, s =  1.1540, p =  3.5992, d =  2.1298, 
                 polarization =   2.2350, s = -0.0189, p = -0.1161, d =  2.3700, 
     Atom #  11: total charge =  16.0006, s =  2.2893, p =  7.0819, d =  6.6295, 
                 spin up      =   9.1165, s =  1.1352, p =  3.4830, d =  4.4982, 
                 spin down    =   6.8842, s =  1.1540, p =  3.5988, d =  2.1313, 
                 polarization =   2.2323, s = -0.0188, p = -0.1158, d =  2.3669, 
     Atom #  12: total charge =  15.9952, s =  2.2888, p =  7.0787, d =  6.6277, 
                 spin up      =   9.1456, s =  1.1349, p =  3.4802, d =  4.5305, 
                 spin down    =   6.8496, s =  1.1539, p =  3.5985, d =  2.0972, 
                 polarization =   2.2961, s = -0.0189, p = -0.1184, d =  2.4334, 
     Atom #  13: total charge =  16.1309, s =  2.3072, p =  7.1565, d =  6.6672, 
                 spin up      =   9.1964, s =  1.1409, p =  3.5172, d =  4.5384, 
                 spin down    =   6.9344, s =  1.1663, p =  3.6392, d =  2.1289, 
                 polarization =   2.2620, s = -0.0254, p = -0.1220, d =  2.4095, 
     Atom #  14: total charge =  16.1303, s =  2.3073, p =  7.1562, d =  6.6669, 
                 spin up      =   9.1980, s =  1.1409, p =  3.5170, d =  4.5401, 
                 spin down    =   6.9323, s =  1.1663, p =  3.6392, d =  2.1268, 
                 polarization =   2.2657, s = -0.0254, p = -0.1222, d =  2.4133, 
     Atom #  15: total charge =  16.1197, s =  2.3074, p =  7.1509, d =  6.6613, 
                 spin up      =   9.2188, s =  1.1412, p =  3.5137, d =  4.5639, 
                 spin down    =   6.9009, s =  1.1662, p =  3.6372, d =  2.0974, 
                 polarization =   2.3179, s = -0.0251, p = -0.1235, d =  2.4665, 
     Atom #  16: total charge =  16.1191, s =  2.3075, p =  7.1508, d =  6.6607, 
                 spin up      =   9.2203, s =  1.1412, p =  3.5137, d =  4.5654, 
                 spin down    =   6.8987, s =  1.1663, p =  3.6372, d =  2.0953, 
                 polarization =   2.3216, s = -0.0250, p = -0.1235, d =  2.4701, 
     Atom #  17: total charge =  15.9995, s =  2.3543, p =  7.0531, d =  6.5921, 
                 spin up      =   9.4767, s =  1.1734, p =  3.5082, d =  4.7951, 
                 spin down    =   6.5228, s =  1.1810, p =  3.5448, d =  1.7970, 
                 polarization =   2.9538, s = -0.0076, p = -0.0366, d =  2.9980, 
     Atom #  18: total charge =  15.8469, s =  2.3777, p =  6.8970, d =  6.5722, 
                 spin up      =   9.4562, s =  1.1950, p =  3.4429, d =  4.8183, 
                 spin down    =   6.3907, s =  1.1827, p =  3.4541, d =  1.7539, 
                 polarization =   3.0655, s =  0.0123, p = -0.0112, d =  3.0643, 
     Atom #  19: total charge =  15.8430, s =  2.3755, p =  6.8944, d =  6.5731, 
                 spin up      =   9.4571, s =  1.1945, p =  3.4396, d =  4.8231, 
                 spin down    =   6.3859, s =  1.1811, p =  3.4547, d =  1.7501, 
                 polarization =   3.0712, s =  0.0134, p = -0.0151, d =  3.0730, 
     Atom #  20: total charge =  15.8343, s =  2.3776, p =  6.8911, d =  6.5656, 
                 spin up      =   9.4625, s =  1.1966, p =  3.4502, d =  4.8157, 
                 spin down    =   6.3719, s =  1.1810, p =  3.4409, d =  1.7499, 
                 polarization =   3.0906, s =  0.0156, p =  0.0092, d =  3.0658, 
     Atom #  21: total charge =   5.8751, s =  1.6083, p =  4.2669, d =  0.0000, 
                 spin up      =   2.9504, s =  0.8094, p =  2.1410, d =  0.0000, 
                 spin down    =   2.9248, s =  0.7989, p =  2.1259, d =  0.0000, 
                 polarization =   0.0256, s =  0.0105, p =  0.0151, d =  0.0000, 
     Atom #  22: total charge =   0.8464, s =  0.8464, p =  0.0000, d =  0.0000, 
                 spin up      =   0.4227, s =  0.4227, p =  0.0000, d =  0.0000, 
                 spin down    =   0.4237, s =  0.4237, p =  0.0000, d =  0.0000, 
                 polarization =  -0.0010, s = -0.0010, p =  0.0000, d =  0.0000, 
     Atom #  23: total charge =   0.8463, s =  0.8463, p =  0.0000, d =  0.0000, 
                 spin up      =   0.4224, s =  0.4224, p =  0.0000, d =  0.0000, 
                 spin down    =   0.4239, s =  0.4239, p =  0.0000, d =  0.0000, 
                 polarization =  -0.0015, s = -0.0015, p =  0.0000, d =  0.0000, 
     Spilling Parameter:   0.0020
Application 19354999 resources: utime ~5794s, stime ~127s, Rss ~254228, inblocks ~42657498, outblocks ~30983153
